[Molden Format]
[Atoms] AU
  N     1    7     0.0000000000    0.0000000000    2.7935113000        
  C     2    6     0.0000000000    0.0000000000   -2.4730801300        
  C     3    6     0.0000000000    2.1001577500    1.4879288300        
  C     4    6     0.0000000000   -2.1001577500    1.4879288300        
  C     5    6     0.0000000000    2.2890629200   -1.1374055000        
  C     6    6     0.0000000000   -2.2890629200   -1.1374055000        
  H     7    1     0.0000000000    0.0000000000   -4.5196091200        
  H     8    1     0.0000000000    4.0946996900   -2.0854975700        
  H     9    1     0.0000000000   -4.0946996900   -2.0854975700        
[5D7F]
[GTO]
  1  0
   s     9 1.00
  0.904600D+04  0.700000D-03
  0.135700D+04  0.538900D-02
  0.309300D+03  0.274060D-01
  0.877300D+02  0.103207D+00
  0.285600D+02  0.278723D+00
  0.102100D+02  0.448540D+00
  0.383800D+01  0.278238D+00
  0.746600D+00  0.154400D-01
  0.224800D+00 -0.286400D-02
   s     9 1.00
  0.904600D+04 -0.153000D-03
  0.135700D+04 -0.120800D-02
  0.309300D+03 -0.599200D-02
  0.877300D+02 -0.245440D-01
  0.285600D+02 -0.674590D-01
  0.102100D+02 -0.158078D+00
  0.383800D+01 -0.121831D+00
  0.746600D+00  0.549003D+00
  0.224800D+00  0.578815D+00
   s     1 1.00
  0.224800D+00  0.100000D+01
   p     4 1.00
  0.135500D+02  0.399190D-01
  0.291700D+01  0.217169D+00
  0.797300D+00  0.510319D+00
  0.218500D+00  0.462214D+00
   p     1 1.00
  0.218500D+00  0.100000D+01
   d     1 1.00
  0.817000D+00  0.100000D+01
  
  2  0
   s     9 1.00
  0.666500D+04  0.692000D-03
  0.100000D+04  0.532900D-02
  0.228000D+03  0.270770D-01
  0.647100D+02  0.101718D+00
  0.210600D+02  0.274740D+00
  0.749500D+01  0.448564D+00
  0.279700D+01  0.285074D+00
  0.521500D+00  0.152040D-01
  0.159600D+00 -0.319100D-02
   s     9 1.00
  0.666500D+04 -0.146000D-03
  0.100000D+04 -0.115400D-02
  0.228000D+03 -0.572500D-02
  0.647100D+02 -0.233120D-01
  0.210600D+02 -0.639550D-01
  0.749500D+01 -0.149981D+00
  0.279700D+01 -0.127262D+00
  0.521500D+00  0.544529D+00
  0.159600D+00  0.580496D+00
   s     1 1.00
  0.159600D+00  0.100000D+01
   p     4 1.00
  0.943900D+01  0.381090D-01
  0.200200D+01  0.209480D+00
  0.545600D+00  0.508557D+00
  0.151700D+00  0.468842D+00
   p     1 1.00
  0.151700D+00  0.100000D+01
   d     1 1.00
  0.550000D+00  0.100000D+01
  
  3  0
   s     9 1.00
  0.666500D+04  0.692000D-03
  0.100000D+04  0.532900D-02
  0.228000D+03  0.270770D-01
  0.647100D+02  0.101718D+00
  0.210600D+02  0.274740D+00
  0.749500D+01  0.448564D+00
  0.279700D+01  0.285074D+00
  0.521500D+00  0.152040D-01
  0.159600D+00 -0.319100D-02
   s     9 1.00
  0.666500D+04 -0.146000D-03
  0.100000D+04 -0.115400D-02
  0.228000D+03 -0.572500D-02
  0.647100D+02 -0.233120D-01
  0.210600D+02 -0.639550D-01
  0.749500D+01 -0.149981D+00
  0.279700D+01 -0.127262D+00
  0.521500D+00  0.544529D+00
  0.159600D+00  0.580496D+00
   s     1 1.00
  0.159600D+00  0.100000D+01
   p     4 1.00
  0.943900D+01  0.381090D-01
  0.200200D+01  0.209480D+00
  0.545600D+00  0.508557D+00
  0.151700D+00  0.468842D+00
   p     1 1.00
  0.151700D+00  0.100000D+01
   d     1 1.00
  0.550000D+00  0.100000D+01
  
  4  0
   s     9 1.00
  0.666500D+04  0.692000D-03
  0.100000D+04  0.532900D-02
  0.228000D+03  0.270770D-01
  0.647100D+02  0.101718D+00
  0.210600D+02  0.274740D+00
  0.749500D+01  0.448564D+00
  0.279700D+01  0.285074D+00
  0.521500D+00  0.152040D-01
  0.159600D+00 -0.319100D-02
   s     9 1.00
  0.666500D+04 -0.146000D-03
  0.100000D+04 -0.115400D-02
  0.228000D+03 -0.572500D-02
  0.647100D+02 -0.233120D-01
  0.210600D+02 -0.639550D-01
  0.749500D+01 -0.149981D+00
  0.279700D+01 -0.127262D+00
  0.521500D+00  0.544529D+00
  0.159600D+00  0.580496D+00
   s     1 1.00
  0.159600D+00  0.100000D+01
   p     4 1.00
  0.943900D+01  0.381090D-01
  0.200200D+01  0.209480D+00
  0.545600D+00  0.508557D+00
  0.151700D+00  0.468842D+00
   p     1 1.00
  0.151700D+00  0.100000D+01
   d     1 1.00
  0.550000D+00  0.100000D+01
  
  5  0
   s     9 1.00
  0.666500D+04  0.692000D-03
  0.100000D+04  0.532900D-02
  0.228000D+03  0.270770D-01
  0.647100D+02  0.101718D+00
  0.210600D+02  0.274740D+00
  0.749500D+01  0.448564D+00
  0.279700D+01  0.285074D+00
  0.521500D+00  0.152040D-01
  0.159600D+00 -0.319100D-02
   s     9 1.00
  0.666500D+04 -0.146000D-03
  0.100000D+04 -0.115400D-02
  0.228000D+03 -0.572500D-02
  0.647100D+02 -0.233120D-01
  0.210600D+02 -0.639550D-01
  0.749500D+01 -0.149981D+00
  0.279700D+01 -0.127262D+00
  0.521500D+00  0.544529D+00
  0.159600D+00  0.580496D+00
   s     1 1.00
  0.159600D+00  0.100000D+01
   p     4 1.00
  0.943900D+01  0.381090D-01
  0.200200D+01  0.209480D+00
  0.545600D+00  0.508557D+00
  0.151700D+00  0.468842D+00
   p     1 1.00
  0.151700D+00  0.100000D+01
   d     1 1.00
  0.550000D+00  0.100000D+01
  
  6  0
   s     9 1.00
  0.666500D+04  0.692000D-03
  0.100000D+04  0.532900D-02
  0.228000D+03  0.270770D-01
  0.647100D+02  0.101718D+00
  0.210600D+02  0.274740D+00
  0.749500D+01  0.448564D+00
  0.279700D+01  0.285074D+00
  0.521500D+00  0.152040D-01
  0.159600D+00 -0.319100D-02
   s     9 1.00
  0.666500D+04 -0.146000D-03
  0.100000D+04 -0.115400D-02
  0.228000D+03 -0.572500D-02
  0.647100D+02 -0.233120D-01
  0.210600D+02 -0.639550D-01
  0.749500D+01 -0.149981D+00
  0.279700D+01 -0.127262D+00
  0.521500D+00  0.544529D+00
  0.159600D+00  0.580496D+00
   s     1 1.00
  0.159600D+00  0.100000D+01
   p     4 1.00
  0.943900D+01  0.381090D-01
  0.200200D+01  0.209480D+00
  0.545600D+00  0.508557D+00
  0.151700D+00  0.468842D+00
   p     1 1.00
  0.151700D+00  0.100000D+01
   d     1 1.00
  0.550000D+00  0.100000D+01
  
  7  0
   s     4 1.00
  0.130100D+02  0.196850D-01
  0.196200D+01  0.137977D+00
  0.444600D+00  0.478148D+00
  0.122000D+00  0.501240D+00
   s     1 1.00
  0.122000D+00  0.100000D+01
   p     1 1.00
  0.727000D+00  0.100000D+01
  
  8  0
   s     4 1.00
  0.130100D+02  0.196850D-01
  0.196200D+01  0.137977D+00
  0.444600D+00  0.478148D+00
  0.122000D+00  0.501240D+00
   s     1 1.00
  0.122000D+00  0.100000D+01
   p     1 1.00
  0.727000D+00  0.100000D+01
  
  9  0
   s     4 1.00
  0.130100D+02  0.196850D-01
  0.196200D+01  0.137977D+00
  0.444600D+00  0.478148D+00
  0.122000D+00  0.501240D+00
   s     1 1.00
  0.122000D+00  0.100000D+01
   p     1 1.00
  0.727000D+00  0.100000D+01
  
[MO]
 Sym= __1_A1_
 Ene=   1.00000000000000     
 Spin= Alpha
 Occup=    1.00000000000000     
                     1   1.00140052605962     
                     2  6.767907804947514E-003
                     3 -1.073843871798423E-002
                     4  0.000000000000000E+000
                     5  0.000000000000000E+000
                     6 -2.918881117454664E-003
                     7  0.000000000000000E+000
                     8  0.000000000000000E+000
                     9  4.105796274501209E-003
                    10 -4.386229532366036E-006
                    11  0.000000000000000E+000
                    12  0.000000000000000E+000
                    13 -3.786795547950068E-004
                    14  0.000000000000000E+000
                    15 -1.781223570164773E-004
                    16 -6.372818932371009E-004
                    17  4.129650185544768E-003
                    18  0.000000000000000E+000
                    19  0.000000000000000E+000
                    20 -8.725751219119496E-005
                    21  0.000000000000000E+000
                    22  0.000000000000000E+000
                    23  1.706485937678667E-003
                    24  1.051054606881944E-004
                    25  0.000000000000000E+000
                    26  0.000000000000000E+000
                    27 -3.679248643960922E-005
                    28  0.000000000000000E+000
                    29  7.178115846625395E-005
                    30 -1.089051964530713E-004
                    31  3.921277979436664E-003
                    32  0.000000000000000E+000
                    33 -7.544894999230456E-005
                    34 -1.908622915192993E-004
                    35  0.000000000000000E+000
                    36 -2.024091430724527E-003
                    37  2.620910923056675E-005
                    38 -2.115582681406692E-005
                    39  0.000000000000000E+000
                    40  5.114427090859004E-004
                    41  2.441599140248642E-004
                    42  0.000000000000000E+000
                    43  7.178115846625395E-005
                    44 -1.089051964530713E-004
                    45  3.921277979436664E-003
                    46  0.000000000000000E+000
                    47  7.544894999230456E-005
                    48 -1.908622915192993E-004
                    49  0.000000000000000E+000
                    50  2.024091430724527E-003
                    51  2.620910923056675E-005
                    52 -2.115582681406692E-005
                    53  0.000000000000000E+000
                    54 -5.114427090859004E-004
                    55  2.441599140248642E-004
                    56  0.000000000000000E+000
                    57  7.541674835147264E-005
                    58  2.363836745774161E-004
                    59 -2.795877777742070E-003
                    60  0.000000000000000E+000
                    61  5.826404935031112E-005
                    62 -7.404984178359809E-005
                    63  0.000000000000000E+000
                    64  2.023459611569776E-003
                    65 -3.367096238817471E-004
                    66  3.784068659608524E-005
                    67  0.000000000000000E+000
                    68  1.594775689122672E-004
                    69 -8.960844396875313E-006
                    70  0.000000000000000E+000
                    71  7.541674835147264E-005
                    72  2.363836745774161E-004
                    73 -2.795877777742070E-003
                    74  0.000000000000000E+000
                    75 -5.826404935031112E-005
                    76 -7.404984178359809E-005
                    77  0.000000000000000E+000
                    78 -2.023459611569776E-003
                    79 -3.367096238817471E-004
                    80  3.784068659608524E-005
                    81  0.000000000000000E+000
                    82 -1.594775689122672E-004
                    83 -8.960844396875313E-006
                    84  0.000000000000000E+000
                    85 -1.143026276633115E-004
                    86  4.534906062333505E-004
                    87  0.000000000000000E+000
                    88  0.000000000000000E+000
                    89 -6.279642471924433E-005
                    90 -1.268468732071820E-004
                    91 -4.006492063069562E-004
                    92  0.000000000000000E+000
                    93 -9.259524863976461E-005
                    94 -1.738994406533453E-005
                    95 -1.268468732071820E-004
                    96 -4.006492063069562E-004
                    97  0.000000000000000E+000
                    98  9.259524863976461E-005
                    99 -1.738994406533453E-005
 Sym= __2_A1_
 Ene=   2.00000000000000     
 Spin= Alpha
 Occup=    1.00000000000000     
                     1 -2.103958971809682E-004
                     2  1.127770746734479E-003
                     3 -3.989885972741430E-003
                     4  0.000000000000000E+000
                     5  0.000000000000000E+000
                     6  2.456011560652105E-004
                     7  0.000000000000000E+000
                     8  0.000000000000000E+000
                     9  1.232220327776563E-003
                    10  1.151016953571397E-004
                    11  0.000000000000000E+000
                    12  0.000000000000000E+000
                    13  6.357743582763776E-004
                    14  0.000000000000000E+000
                    15  4.739586689422350E-004
                    16 -5.817321116970720E-004
                    17  3.119774532718873E-003
                    18  0.000000000000000E+000
                    19  0.000000000000000E+000
                    20 -3.723531591459811E-005
                    21  0.000000000000000E+000
                    22  0.000000000000000E+000
                    23  1.282620712279902E-003
                    24 -4.780601602012920E-005
                    25  0.000000000000000E+000
                    26  0.000000000000000E+000
                    27 -2.922889484329890E-004
                    28  0.000000000000000E+000
                    29  0.707712218877409     
                    30  4.545741499501097E-003
                    31 -3.080829440273920E-003
                    32  0.000000000000000E+000
                    33 -1.738183185270963E-003
                    34 -2.475775527976714E-004
                    35  0.000000000000000E+000
                    36 -2.153443413544671E-004
                    37  1.123895492731218E-003
                    38  1.892156238893633E-004
                    39  0.000000000000000E+000
                    40 -7.246845281577908E-004
                    41 -4.465531106714552E-004
                    42  0.000000000000000E+000
                    43  0.707712218877409     
                    44  4.545741499501097E-003
                    45 -3.080829440273920E-003
                    46  0.000000000000000E+000
                    47  1.738183185270963E-003
                    48 -2.475775527976714E-004
                    49  0.000000000000000E+000
                    50  2.153443413544671E-004
                    51  1.123895492731218E-003
                    52  1.892156238893633E-004
                    53  0.000000000000000E+000
                    54  7.246845281577908E-004
                    55 -4.465531106714552E-004
                    56  0.000000000000000E+000
                    57  1.388831081500521E-002
                    58 -2.744848359534541E-004
                    59  6.509825514403182E-005
                    60  0.000000000000000E+000
                    61  8.212013783938070E-005
                    62 -3.378799164454590E-005
                    63  0.000000000000000E+000
                    64  8.763264750002013E-004
                    65  9.790948359122550E-004
                    66 -1.864882087737688E-004
                    67  0.000000000000000E+000
                    68 -3.074131512193665E-004
                    69  1.195578080595793E-004
                    70  0.000000000000000E+000
                    71  1.388831081500521E-002
                    72 -2.744848359534541E-004
                    73  6.509825514403182E-005
                    74  0.000000000000000E+000
                    75 -8.212013783938070E-005
                    76 -3.378799164454590E-005
                    77  0.000000000000000E+000
                    78 -8.763264750002013E-004
                    79  9.790948359122550E-004
                    80 -1.864882087737688E-004
                    81  0.000000000000000E+000
                    82  3.074131512193665E-004
                    83  1.195578080595793E-004
                    84  0.000000000000000E+000
                    85  1.414035954647898E-004
                    86  3.942898731378142E-004
                    87  0.000000000000000E+000
                    88  0.000000000000000E+000
                    89  8.526841844974791E-006
                    90 -1.988659817998095E-004
                    91  2.987836533458588E-004
                    92  0.000000000000000E+000
                    93 -3.773743929128897E-005
                    94  5.257660137805507E-005
                    95 -1.988659817998095E-004
                    96  2.987836533458588E-004
                    97  0.000000000000000E+000
                    98  3.773743929128897E-005
                    99  5.257660137805507E-005
 Sym= __3_A1_
 Ene=   3.00000000000000     
 Spin= Alpha
 Occup=    1.00000000000000     
                     1 -2.222279094525090E-005
                     2 -1.040758711894774E-004
                     3  1.256036899594877E-004
                     4  0.000000000000000E+000
                     5  0.000000000000000E+000
                     6  3.705586937028550E-005
                     7  0.000000000000000E+000
                     8  0.000000000000000E+000
                     9  7.786546577186952E-005
                    10 -3.524077053321188E-006
                    11  0.000000000000000E+000
                    12  0.000000000000000E+000
                    13 -2.973305202972968E-006
                    14  0.000000000000000E+000
                    15  0.998192485717599     
                    16  8.873850672663624E-003
                    17 -1.133813271310237E-002
                    18  0.000000000000000E+000
                    19  0.000000000000000E+000
                    20 -5.350454692636420E-006
                    21  0.000000000000000E+000
                    22  0.000000000000000E+000
                    23 -1.707028183982559E-003
                    24  4.076691546547214E-004
                    25  0.000000000000000E+000
                    26  0.000000000000000E+000
                    27 -4.035398155131172E-004
                    28  0.000000000000000E+000
                    29 -1.693855665956133E-003
                    30 -3.271534761301019E-004
                    31  5.506035422773612E-004
                    32  0.000000000000000E+000
                    33 -4.805598200770924E-005
                    34 -7.059674700552729E-009
                    35  0.000000000000000E+000
                    36  9.719364034546317E-005
                    37 -2.725760118757462E-004
                    38  4.914722921323612E-005
                    39  0.000000000000000E+000
                    40  3.340376906942366E-005
                    41 -6.587906929264807E-005
                    42  0.000000000000000E+000
                    43 -1.693855665956133E-003
                    44 -3.271534761301019E-004
                    45  5.506035422773612E-004
                    46  0.000000000000000E+000
                    47  4.805598200770924E-005
                    48 -7.059674700552729E-009
                    49  0.000000000000000E+000
                    50 -9.719364034546317E-005
                    51 -2.725760118757462E-004
                    52  4.914722921323612E-005
                    53  0.000000000000000E+000
                    54 -3.340376906942366E-005
                    55 -6.587906929264807E-005
                    56  0.000000000000000E+000
                    57  5.739867645164026E-002
                    58 -1.294734468142957E-004
                    59  2.055990309720980E-003
                    60  0.000000000000000E+000
                    61  1.020842410720461E-004
                    62  5.204752583423324E-005
                    63  0.000000000000000E+000
                    64 -1.481359030878120E-003
                    65 -3.762014138472620E-004
                    66 -6.854929730616178E-005
                    67  0.000000000000000E+000
                    68 -8.549728085243267E-005
                    69  3.100078002251890E-004
                    70  0.000000000000000E+000
                    71  5.739867645164026E-002
                    72 -1.294734468142957E-004
                    73  2.055990309720980E-003
                    74  0.000000000000000E+000
                    75 -1.020842410720461E-004
                    76  5.204752583423324E-005
                    77  0.000000000000000E+000
                    78  1.481359030878120E-003
                    79 -3.762014138472620E-004
                    80 -6.854929730616178E-005
                    81  0.000000000000000E+000
                    82  8.549728085243267E-005
                    83  3.100078002251890E-004
                    84  0.000000000000000E+000
                    85 -8.178793747556433E-004
                    86  1.228467696210594E-003
                    87  0.000000000000000E+000
                    88  0.000000000000000E+000
                    89 -5.204882608199006E-004
                    90  1.804007580453991E-004
                    91  3.711943491826143E-004
                    92  0.000000000000000E+000
                    93 -7.866485232181133E-005
                    94  6.713962930654151E-005
                    95  1.804007580453991E-004
                    96  3.711943491826143E-004
                    97  0.000000000000000E+000
                    98  7.866485232181133E-005
                    99  6.713962930654151E-005
 Sym= __4_A1_
 Ene=   4.00000000000000     
 Spin= Alpha
 Occup=    1.00000000000000     
                     1  7.052133928808070E-005
                     2  1.852051637518258E-004
                     3 -1.143677833367234E-003
                     4  0.000000000000000E+000
                     5  0.000000000000000E+000
                     6 -1.947330633488898E-005
                     7  0.000000000000000E+000
                     8  0.000000000000000E+000
                     9  4.759503043224717E-004
                    10  4.634068278711935E-005
                    11  0.000000000000000E+000
                    12  0.000000000000000E+000
                    13 -5.289709976159310E-005
                    14  0.000000000000000E+000
                    15 -8.206503407733522E-002
                    16 -1.681016392867767E-003
                    17  5.715357205616539E-003
                    18  0.000000000000000E+000
                    19  0.000000000000000E+000
                    20 -5.651797593594974E-005
                    21  0.000000000000000E+000
                    22  0.000000000000000E+000
                    23  2.329120351226770E-003
                    24 -3.535835076434673E-004
                    25  0.000000000000000E+000
                    26  0.000000000000000E+000
                    27  3.863044000657998E-004
                    28  0.000000000000000E+000
                    29 -1.426785405809204E-002
                    30 -6.404550519924565E-004
                    31  3.535358298777555E-003
                    32  0.000000000000000E+000
                    33  2.653726524164831E-005
                    34  1.945276281361253E-004
                    35  0.000000000000000E+000
                    36 -4.151859820104556E-004
                    37 -1.201487407491031E-003
                    38 -2.166610064050172E-004
                    39  0.000000000000000E+000
                    40 -7.488406855449665E-006
                    41  7.686204136726086E-005
                    42  0.000000000000000E+000
                    43 -1.426785405809204E-002
                    44 -6.404550519924565E-004
                    45  3.535358298777555E-003
                    46  0.000000000000000E+000
                    47 -2.653726524164831E-005
                    48  1.945276281361253E-004
                    49  0.000000000000000E+000
                    50  4.151859820104556E-004
                    51 -1.201487407491031E-003
                    52 -2.166610064050172E-004
                    53  0.000000000000000E+000
                    54  7.488406855449665E-006
                    55  7.686204136726086E-005
                    56  0.000000000000000E+000
                    57  0.705771565285820     
                    58  6.589325006047603E-003
                    59 -9.536961035982354E-003
                    60  0.000000000000000E+000
                    61  2.226722249047243E-005
                    62  1.479009064182517E-004
                    63  0.000000000000000E+000
                    64  1.599324588573948E-003
                    65 -1.146086814436046E-003
                    66  1.145071733693942E-004
                    67  0.000000000000000E+000
                    68 -1.803036557923565E-004
                    69 -4.845481436171396E-004
                    70  0.000000000000000E+000
                    71  0.705771565285820     
                    72  6.589325006047603E-003
                    73 -9.536961035982354E-003
                    74  0.000000000000000E+000
                    75 -2.226722249047243E-005
                    76  1.479009064182517E-004
                    77  0.000000000000000E+000
                    78 -1.599324588573948E-003
                    79 -1.146086814436046E-003
                    80  1.145071733693942E-004
                    81  0.000000000000000E+000
                    82  1.803036557923565E-004
                    83 -4.845481436171396E-004
                    84  0.000000000000000E+000
                    85  4.988958979461432E-004
                    86  3.253066210995394E-004
                    87  0.000000000000000E+000
                    88  0.000000000000000E+000
                    89  2.457874820317954E-004
                    90 -7.653203730291826E-004
                    91  8.680514364589686E-004
                    92  0.000000000000000E+000
                    93  3.564427013052716E-004
                    94 -1.872813242692474E-004
                    95 -7.653203730291826E-004
                    96  8.680514364589686E-004
                    97  0.000000000000000E+000
                    98 -3.564427013052716E-004
                    99 -1.872813242692474E-004
 Sym= __5_A1_
 Ene=   5.00000000000000     
 Spin= Alpha
 Occup=    1.00000000000000     
                     1  1.547865629185236E-002
                     2 -0.670684300496532     
                     3  8.141413402345875E-002
                     4  0.000000000000000E+000
                     5  0.000000000000000E+000
                     6  0.167520511199227     
                     7  0.000000000000000E+000
                     8  0.000000000000000E+000
                     9 -3.528973716079115E-002
                    10 -4.224852213965586E-003
                    11  0.000000000000000E+000
                    12  0.000000000000000E+000
                    13  1.300866705248053E-002
                    14  0.000000000000000E+000
                    15  1.942508266525927E-003
                    16 -0.134832622733753     
                    17  9.065239072730057E-002
                    18  0.000000000000000E+000
                    19  0.000000000000000E+000
                    20 -4.719414192955607E-002
                    21  0.000000000000000E+000
                    22  0.000000000000000E+000
                    23  3.778163784223865E-002
                    24 -9.042700470869372E-004
                    25  0.000000000000000E+000
                    26  0.000000000000000E+000
                    27  3.361808979697648E-003
                    28  0.000000000000000E+000
                    29  1.089191667826705E-002
                    30 -0.367572489631704     
                    31  0.157250060333143     
                    32  0.000000000000000E+000
                    33  0.181998427957305     
                    34 -3.335200507381127E-002
                    35  0.000000000000000E+000
                    36 -8.351356127148803E-002
                    37  1.956166309119077E-002
                    38  3.070212210636725E-003
                    39  0.000000000000000E+000
                    40  1.547882050064294E-002
                    41  1.771233730466591E-002
                    42  0.000000000000000E+000
                    43  1.089191667826705E-002
                    44 -0.367572489631704     
                    45  0.157250060333143     
                    46  0.000000000000000E+000
                    47 -0.181998427957305     
                    48 -3.335200507381127E-002
                    49  0.000000000000000E+000
                    50  8.351356127148803E-002
                    51  1.956166309119077E-002
                    52  3.070212210636725E-003
                    53  0.000000000000000E+000
                    54 -1.547882050064294E-002
                    55  1.771233730466591E-002
                    56  0.000000000000000E+000
                    57  5.490602202042956E-003
                    58 -0.162074705353455     
                    59  3.181547747775226E-002
                    60  0.000000000000000E+000
                    61  4.417082350415191E-002
                    62 -5.275638004348029E-002
                    63  0.000000000000000E+000
                    64  6.291560945901954E-003
                    65  1.684431079336397E-002
                    66 -6.601495376731219E-003
                    67  0.000000000000000E+000
                    68  2.769903716756545E-003
                    69  2.115853428592212E-003
                    70  0.000000000000000E+000
                    71  5.490602202042956E-003
                    72 -0.162074705353455     
                    73  3.181547747775226E-002
                    74  0.000000000000000E+000
                    75 -4.417082350415191E-002
                    76 -5.275638004348029E-002
                    77  0.000000000000000E+000
                    78 -6.291560945901954E-003
                    79  1.684431079336397E-002
                    80 -6.601495376731219E-003
                    81  0.000000000000000E+000
                    82 -2.769903716756545E-003
                    83  2.115853428592212E-003
                    84  0.000000000000000E+000
                    85 -2.132898789139308E-002
                    86  1.583777752421667E-002
                    87  0.000000000000000E+000
                    88  0.000000000000000E+000
                    89 -2.610865930329124E-003
                    90 -2.724421222315369E-002
                    91  8.398550265275086E-003
                    92  0.000000000000000E+000
                    93  1.454931949312310E-003
                    94 -2.332949215132934E-003
                    95 -2.724421222315369E-002
                    96  8.398550265275086E-003
                    97  0.000000000000000E+000