[Molden Format]
[Atoms] AU
  N     1    7     0.0000000000    0.0000000000    2.7933925400        
  C     2    6     0.0000000000    0.0000000000   -2.4731799900        
  C     3    6     0.0000000000    2.0973280100    1.4862887900        
  C     4    6     0.0000000000   -2.0973280100    1.4862887900        
  C     5    6     0.0000000000    2.2863650700   -1.1378599100        
  C     6    6     0.0000000000   -2.2863650700   -1.1378599100        
  H     7    1     0.0000000000    0.0000000000   -4.5183020400        
  H     8    1     0.0000000000    4.0945778600   -2.0820921400        
  H     9    1     0.0000000000   -4.0945778600   -2.0820921400        
[5D7F]
[GTO]
  1  0
   s     9 1.00
  0.904600D+04  0.700000D-03
  0.135700D+04  0.538900D-02
  0.309300D+03  0.274060D-01
  0.877300D+02  0.103207D+00
  0.285600D+02  0.278723D+00
  0.102100D+02  0.448540D+00
  0.383800D+01  0.278238D+00
  0.746600D+00  0.154400D-01
  0.224800D+00 -0.286400D-02
   s     9 1.00
  0.904600D+04 -0.153000D-03
  0.135700D+04 -0.120800D-02
  0.309300D+03 -0.599200D-02
  0.877300D+02 -0.245440D-01
  0.285600D+02 -0.674590D-01
  0.102100D+02 -0.158078D+00
  0.383800D+01 -0.121831D+00
  0.746600D+00  0.549003D+00
  0.224800D+00  0.578815D+00
   s     1 1.00
  0.224800D+00  0.100000D+01
   p     4 1.00
  0.135500D+02  0.399190D-01
  0.291700D+01  0.217169D+00
  0.797300D+00  0.510319D+00
  0.218500D+00  0.462214D+00
   p     1 1.00
  0.218500D+00  0.100000D+01
   d     1 1.00
  0.817000D+00  0.100000D+01
  
  2  0
   s     9 1.00
  0.666500D+04  0.692000D-03
  0.100000D+04  0.532900D-02
  0.228000D+03  0.270770D-01
  0.647100D+02  0.101718D+00
  0.210600D+02  0.274740D+00
  0.749500D+01  0.448564D+00
  0.279700D+01  0.285074D+00
  0.521500D+00  0.152040D-01
  0.159600D+00 -0.319100D-02
   s     9 1.00
  0.666500D+04 -0.146000D-03
  0.100000D+04 -0.115400D-02
  0.228000D+03 -0.572500D-02
  0.647100D+02 -0.233120D-01
  0.210600D+02 -0.639550D-01
  0.749500D+01 -0.149981D+00
  0.279700D+01 -0.127262D+00
  0.521500D+00  0.544529D+00
  0.159600D+00  0.580496D+00
   s     1 1.00
  0.159600D+00  0.100000D+01
   p     4 1.00
  0.943900D+01  0.381090D-01
  0.200200D+01  0.209480D+00
  0.545600D+00  0.508557D+00
  0.151700D+00  0.468842D+00
   p     1 1.00
  0.151700D+00  0.100000D+01
   d     1 1.00
  0.550000D+00  0.100000D+01
  
  3  0
   s     9 1.00
  0.666500D+04  0.692000D-03
  0.100000D+04  0.532900D-02
  0.228000D+03  0.270770D-01
  0.647100D+02  0.101718D+00
  0.210600D+02  0.274740D+00
  0.749500D+01  0.448564D+00
  0.279700D+01  0.285074D+00
  0.521500D+00  0.152040D-01
  0.159600D+00 -0.319100D-02
   s     9 1.00
  0.666500D+04 -0.146000D-03
  0.100000D+04 -0.115400D-02
  0.228000D+03 -0.572500D-02
  0.647100D+02 -0.233120D-01
  0.210600D+02 -0.639550D-01
  0.749500D+01 -0.149981D+00
  0.279700D+01 -0.127262D+00
  0.521500D+00  0.544529D+00
  0.159600D+00  0.580496D+00
   s     1 1.00
  0.159600D+00  0.100000D+01
   p     4 1.00
  0.943900D+01  0.381090D-01
  0.200200D+01  0.209480D+00
  0.545600D+00  0.508557D+00
  0.151700D+00  0.468842D+00
   p     1 1.00
  0.151700D+00  0.100000D+01
   d     1 1.00
  0.550000D+00  0.100000D+01
  
  4  0
   s     9 1.00
  0.666500D+04  0.692000D-03
  0.100000D+04  0.532900D-02
  0.228000D+03  0.270770D-01
  0.647100D+02  0.101718D+00
  0.210600D+02  0.274740D+00
  0.749500D+01  0.448564D+00
  0.279700D+01  0.285074D+00
  0.521500D+00  0.152040D-01
  0.159600D+00 -0.319100D-02
   s     9 1.00
  0.666500D+04 -0.146000D-03
  0.100000D+04 -0.115400D-02
  0.228000D+03 -0.572500D-02
  0.647100D+02 -0.233120D-01
  0.210600D+02 -0.639550D-01
  0.749500D+01 -0.149981D+00
  0.279700D+01 -0.127262D+00
  0.521500D+00  0.544529D+00
  0.159600D+00  0.580496D+00
   s     1 1.00
  0.159600D+00  0.100000D+01
   p     4 1.00
  0.943900D+01  0.381090D-01
  0.200200D+01  0.209480D+00
  0.545600D+00  0.508557D+00
  0.151700D+00  0.468842D+00
   p     1 1.00
  0.151700D+00  0.100000D+01
   d     1 1.00
  0.550000D+00  0.100000D+01
  
  5  0
   s     9 1.00
  0.666500D+04  0.692000D-03
  0.100000D+04  0.532900D-02
  0.228000D+03  0.270770D-01
  0.647100D+02  0.101718D+00
  0.210600D+02  0.274740D+00
  0.749500D+01  0.448564D+00
  0.279700D+01  0.285074D+00
  0.521500D+00  0.152040D-01
  0.159600D+00 -0.319100D-02
   s     9 1.00
  0.666500D+04 -0.146000D-03
  0.100000D+04 -0.115400D-02
  0.228000D+03 -0.572500D-02
  0.647100D+02 -0.233120D-01
  0.210600D+02 -0.639550D-01
  0.749500D+01 -0.149981D+00
  0.279700D+01 -0.127262D+00
  0.521500D+00  0.544529D+00
  0.159600D+00  0.580496D+00
   s     1 1.00
  0.159600D+00  0.100000D+01
   p     4 1.00
  0.943900D+01  0.381090D-01
  0.200200D+01  0.209480D+00
  0.545600D+00  0.508557D+00
  0.151700D+00  0.468842D+00
   p     1 1.00
  0.151700D+00  0.100000D+01
   d     1 1.00
  0.550000D+00  0.100000D+01
  
  6  0
   s     9 1.00
  0.666500D+04  0.692000D-03
  0.100000D+04  0.532900D-02
  0.228000D+03  0.270770D-01
  0.647100D+02  0.101718D+00
  0.210600D+02  0.274740D+00
  0.749500D+01  0.448564D+00
  0.279700D+01  0.285074D+00
  0.521500D+00  0.152040D-01
  0.159600D+00 -0.319100D-02
   s     9 1.00
  0.666500D+04 -0.146000D-03
  0.100000D+04 -0.115400D-02
  0.228000D+03 -0.572500D-02
  0.647100D+02 -0.233120D-01
  0.210600D+02 -0.639550D-01
  0.749500D+01 -0.149981D+00
  0.279700D+01 -0.127262D+00
  0.521500D+00  0.544529D+00
  0.159600D+00  0.580496D+00
   s     1 1.00
  0.159600D+00  0.100000D+01
   p     4 1.00
  0.943900D+01  0.381090D-01
  0.200200D+01  0.209480D+00
  0.545600D+00  0.508557D+00
  0.151700D+00  0.468842D+00
   p     1 1.00
  0.151700D+00  0.100000D+01
   d     1 1.00
  0.550000D+00  0.100000D+01
  
  7  0
   s     4 1.00
  0.130100D+02  0.196850D-01
  0.196200D+01  0.137977D+00
  0.444600D+00  0.478148D+00
  0.122000D+00  0.501240D+00
   s     1 1.00
  0.122000D+00  0.100000D+01
   p     1 1.00
  0.727000D+00  0.100000D+01
  
  8  0
   s     4 1.00
  0.130100D+02  0.196850D-01
  0.196200D+01  0.137977D+00
  0.444600D+00  0.478148D+00
  0.122000D+00  0.501240D+00
   s     1 1.00
  0.122000D+00  0.100000D+01
   p     1 1.00
  0.727000D+00  0.100000D+01
  
  9  0
   s     4 1.00
  0.130100D+02  0.196850D-01
  0.196200D+01  0.137977D+00
  0.444600D+00  0.478148D+00
  0.122000D+00  0.501240D+00
   s     1 1.00
  0.122000D+00  0.100000D+01
   p     1 1.00
  0.727000D+00  0.100000D+01
  
[MO]
 Sym= __1_A1_
 Ene=   1.00000000000000     
 Spin= Alpha
 Occup=    1.00000000000000     
                     1   1.00140410547921     
                     2  6.785737963040401E-003
                     3 -1.076020864568674E-002
                     4  0.000000000000000E+000
                     5  0.000000000000000E+000
                     6 -2.924683884071830E-003
                     7  0.000000000000000E+000
                     8  0.000000000000000E+000
                     9  4.110916736436546E-003
                    10 -4.219513078040338E-006
                    11  0.000000000000000E+000
                    12  0.000000000000000E+000
                    13 -3.801839717553542E-004
                    14  0.000000000000000E+000
                    15 -1.784595145464530E-004
                    16 -6.383182598564136E-004
                    17  4.150590079939503E-003
                    18  0.000000000000000E+000
                    19  0.000000000000000E+000
                    20 -8.695180074996024E-005
                    21  0.000000000000000E+000
                    22  0.000000000000000E+000
                    23  1.711319349372986E-003
                    24  1.060177358016361E-004
                    25  0.000000000000000E+000
                    26  0.000000000000000E+000
                    27 -3.613388950670068E-005
                    28  0.000000000000000E+000
                    29  7.286010007733703E-005
                    30 -1.063154151448999E-004
                    31  3.918049329061123E-003
                    32  0.000000000000000E+000
                    33 -7.348264036138422E-005
                    34 -1.918290804384510E-004
                    35  0.000000000000000E+000
                    36 -2.027445374407980E-003
                    37  3.299822402803592E-005
                    38 -2.217616020853671E-005
                    39  0.000000000000000E+000
                    40  5.132702659332013E-004
                    41  2.454396673140232E-004
                    42  0.000000000000000E+000
                    43  7.286010007733703E-005
                    44 -1.063154151448999E-004
                    45  3.918049329061123E-003
                    46  0.000000000000000E+000
                    47  7.348264036138422E-005
                    48 -1.918290804384510E-004
                    49  0.000000000000000E+000
                    50  2.027445374407980E-003
                    51  3.299822402803592E-005
                    52 -2.217616020853671E-005
                    53  0.000000000000000E+000
                    54 -5.132702659332013E-004
                    55  2.454396673140232E-004
                    56  0.000000000000000E+000
                    57  7.574611927523605E-005
                    58  2.378109184982562E-004
                    59 -2.801192339431642E-003
                    60  0.000000000000000E+000
                    61  5.813294472437022E-005
                    62 -7.349903043069038E-005
                    63  0.000000000000000E+000
                    64  2.030902227462473E-003
                    65 -3.318390650089817E-004
                    66  3.864422615667245E-005
                    67  0.000000000000000E+000
                    68  1.604319842081841E-004
                    69 -8.883524944055008E-006
                    70  0.000000000000000E+000
                    71  7.574611927523605E-005
                    72  2.378109184982562E-004
                    73 -2.801192339431642E-003
                    74  0.000000000000000E+000
                    75 -5.813294472437022E-005
                    76 -7.349903043069038E-005
                    77  0.000000000000000E+000
                    78 -2.030902227462473E-003
                    79 -3.318390650089817E-004
                    80  3.864422615667245E-005
                    81  0.000000000000000E+000
                    82 -1.604319842081841E-004
                    83 -8.883524944055008E-006
                    84  0.000000000000000E+000
                    85 -1.161219771786144E-004
                    86  4.551536743218397E-004
                    87  0.000000000000000E+000
                    88  0.000000000000000E+000
                    89 -6.318836253258710E-005
                    90 -1.275700980708530E-004
                    91 -4.011519651493661E-004
                    92  0.000000000000000E+000
                    93 -9.278338536286793E-005
                    94 -1.750387807067747E-005
                    95 -1.275700980708530E-004
                    96 -4.011519651493661E-004
                    97  0.000000000000000E+000
                    98  9.278338536286793E-005
                    99 -1.750387807067747E-005
 Sym= __2_A1_
 Ene=   2.00000000000000     
 Spin= Alpha
 Occup=    1.00000000000000     
                     1 -2.117178525518913E-004
                     2  1.131292256297522E-003
                     3 -4.025549408738823E-003
                     4  0.000000000000000E+000
                     5  0.000000000000000E+000
                     6  2.475181706066091E-004
                     7  0.000000000000000E+000
                     8  0.000000000000000E+000
                     9  1.243180684144060E-003
                    10  1.153262210631190E-004
                    11  0.000000000000000E+000
                    12  0.000000000000000E+000
                    13  6.367229346252088E-004
                    14  0.000000000000000E+000
                    15  4.838146741486247E-004
                    16 -5.794571509450444E-004
                    17  3.148756335618611E-003
                    18  0.000000000000000E+000
                    19  0.000000000000000E+000
                    20 -3.520052882836944E-005
                    21  0.000000000000000E+000
                    22  0.000000000000000E+000
                    23  1.297027343721121E-003
                    24 -4.936235266572248E-005
                    25  0.000000000000000E+000
                    26  0.000000000000000E+000
                    27 -2.942029061198176E-004
                    28  0.000000000000000E+000
                    29  0.707713754492646     
                    30  4.563139058916918E-003
                    31 -3.069150918178286E-003
                    32  0.000000000000000E+000
                    33 -1.743775765163989E-003
                    34 -2.453999767787698E-004
                    35  0.000000000000000E+000
                    36 -2.205572407067643E-004
                    37  1.121871006286202E-003
                    38  1.924808713621832E-004
                    39  0.000000000000000E+000
                    40 -7.295025652125038E-004
                    41 -4.470922529240872E-004
                    42  0.000000000000000E+000
                    43  0.707713754492646     
                    44  4.563139058916918E-003
                    45 -3.069150918178286E-003
                    46  0.000000000000000E+000
                    47  1.743775765163989E-003
                    48 -2.453999767787698E-004
                    49  0.000000000000000E+000
                    50  2.205572407067643E-004
                    51  1.121871006286202E-003
                    52  1.924808713621832E-004
                    53  0.000000000000000E+000
                    54  7.295025652125038E-004
                    55 -4.470922529240872E-004
                    56  0.000000000000000E+000
                    57  1.395570310409054E-002
                    58 -2.747661082846655E-004
                    59  3.995495230486192E-005
                    60  0.000000000000000E+000
                    61  8.182228714233011E-005
                    62 -3.491850321429835E-005
                    63  0.000000000000000E+000
                    64  8.892395277183578E-004
                    65  9.746106947499462E-004
                    66 -1.879686377142413E-004
                    67  0.000000000000000E+000
                    68 -3.104832638964838E-004
                    69  1.202126557947489E-004
                    70  0.000000000000000E+000
                    71  1.395570310409054E-002
                    72 -2.747661082846655E-004
                    73  3.995495230486192E-005
                    74  0.000000000000000E+000
                    75 -8.182228714233011E-005
                    76 -3.491850321429835E-005
                    77  0.000000000000000E+000
                    78 -8.892395277183578E-004
                    79  9.746106947499462E-004
                    80 -1.879686377142413E-004
                    81  0.000000000000000E+000
                    82  3.104832638964838E-004
                    83  1.202126557947489E-004
                    84  0.000000000000000E+000
                    85  1.434321481542822E-004
                    86  3.971547736759652E-004
                    87  0.000000000000000E+000
                    88  0.000000000000000E+000
                    89  8.588846362004991E-006
                    90 -1.999582712507625E-004
                    91  2.970614891788644E-004
                    92  0.000000000000000E+000
                    93 -3.755684267250182E-005
                    94  5.382264807953024E-005
                    95 -1.999582712507625E-004
                    96  2.970614891788644E-004
                    97  0.000000000000000E+000
                    98  3.755684267250182E-005
                    99  5.382264807953024E-005
 Sym= __3_A1_
 Ene=   3.00000000000000     
 Spin= Alpha
 Occup=    1.00000000000000     
                     1 -2.183677359426296E-005
                     2 -1.027404471024337E-004
                     3  1.237620893172278E-004
                     4  0.000000000000000E+000
                     5  0.000000000000000E+000
                     6  3.664670442106034E-005
                     7  0.000000000000000E+000
                     8  0.000000000000000E+000
                     9  7.947749408986826E-005
                    10 -3.650731855318292E-006
                    11  0.000000000000000E+000
                    12  0.000000000000000E+000
                    13 -3.018785794095494E-006
                    14  0.000000000000000E+000
                    15  0.998110920374008     
                    16  8.899974681197187E-003
                    17 -1.136659605532497E-002
                    18  0.000000000000000E+000
                    19  0.000000000000000E+000
                    20 -2.924095069673686E-006
                    21  0.000000000000000E+000
                    22  0.000000000000000E+000
                    23 -1.709013904189371E-003
                    24  4.095126574082836E-004
                    25  0.000000000000000E+000
                    26  0.000000000000000E+000
                    27 -4.056135169223764E-004
                    28  0.000000000000000E+000
                    29 -1.720671250099081E-003
                    30 -3.265362161831948E-004
                    31  5.570839601211801E-004
                    32  0.000000000000000E+000
                    33 -4.867166445355130E-005
                    34 -1.014167870410912E-006
                    35  0.000000000000000E+000
                    36  9.753209886458129E-005
                    37 -2.752643849065423E-004
                    38  4.937932708654164E-005
                    39  0.000000000000000E+000
                    40  3.394025408804516E-005
                    41 -6.547044163951587E-005
                    42  0.000000000000000E+000
                    43 -1.720671250099081E-003
                    44 -3.265362161831948E-004
                    45  5.570839601211801E-004
                    46  0.000000000000000E+000
                    47  4.867166445355130E-005
                    48 -1.014167870410912E-006
                    49  0.000000000000000E+000
                    50 -9.753209886458129E-005
                    51 -2.752643849065423E-004
                    52  4.937932708654164E-005
                    53  0.000000000000000E+000
                    54 -3.394025408804516E-005
                    55 -6.547044163951587E-005
                    56  0.000000000000000E+000
                    57  5.812959705515588E-002
                    58 -1.249616408796636E-004
                    59  2.050106947310022E-003
                    60  0.000000000000000E+000
                    61  1.031822876945047E-004
                    62  5.279637963174277E-005
                    63  0.000000000000000E+000
                    64 -1.482648559152118E-003
                    65 -3.817322225542491E-004
                    66 -6.887642991300301E-005
                    67  0.000000000000000E+000
                    68 -8.360535751256294E-005
                    69  3.107362158572232E-004
                    70  0.000000000000000E+000
                    71  5.812959705515588E-002
                    72 -1.249616408796636E-004
                    73  2.050106947310022E-003
                    74  0.000000000000000E+000
                    75 -1.031822876945047E-004
                    76  5.279637963174277E-005
                    77  0.000000000000000E+000
                    78  1.482648559152118E-003
                    79 -3.817322225542491E-004
                    80 -6.887642991300301E-005
                    81  0.000000000000000E+000
                    82  8.360535751256294E-005
                    83  3.107362158572232E-004
                    84  0.000000000000000E+000
                    85 -8.212880444885720E-004
                    86  1.232518917931149E-003
                    87  0.000000000000000E+000
                    88  0.000000000000000E+000
                    89 -5.208498698847191E-004
                    90  1.829280205977898E-004
                    91  3.705723896762963E-004
                    92  0.000000000000000E+000
                    93 -7.946491845947145E-005
                    94  6.695519160237891E-005
                    95  1.829280205977898E-004
                    96  3.705723896762963E-004
                    97  0.000000000000000E+000
                    98  7.946491845947145E-005
                    99  6.695519160237891E-005
 Sym= __4_A1_
 Ene=   4.00000000000000     
 Spin= Alpha
 Occup=    1.00000000000000     
                     1  7.119368286977938E-005
                     2  1.874587848374788E-004
                     3 -1.145132622915523E-003
                     4  0.000000000000000E+000
                     5  0.000000000000000E+000
                     6 -2.028195943504564E-005
                     7  0.000000000000000E+000
                     8  0.000000000000000E+000
                     9  4.770896436276258E-004
                    10  4.610858555630080E-005
                    11  0.000000000000000E+000
                    12  0.000000000000000E+000
                    13 -5.329641902689766E-005
                    14  0.000000000000000E+000
                    15 -8.310626941975098E-002
                    16 -1.702720600640517E-003
                    17  5.741594210328276E-003
                    18  0.000000000000000E+000
                    19  0.000000000000000E+000
                    20 -5.819944513842161E-005
                    21  0.000000000000000E+000
                    22  0.000000000000000E+000
                    23  2.335390676825405E-003
                    24 -3.581442842831560E-004
                    25  0.000000000000000E+000
                    26  0.000000000000000E+000
                    27  3.866671509964702E-004
                    28  0.000000000000000E+000
                    29 -1.433327926549128E-002
                    30 -6.396343038038363E-004
                    31  3.538198235319355E-003
                    32  0.000000000000000E+000
                    33  2.643574356459285E-005
                    34  1.938421191884059E-004
                    35  0.000000000000000E+000
                    36 -4.152994126071337E-004
                    37 -1.202181763177047E-003
                    38 -2.161033785550173E-004
                    39  0.000000000000000E+000
                    40 -6.314946174805329E-006
                    41  7.775315956536578E-005
                    42  0.000000000000000E+000
                    43 -1.433327926549128E-002
                    44 -6.396343038038363E-004
                    45  3.538198235319355E-003
                    46  0.000000000000000E+000
                    47 -2.643574356459285E-005
                    48  1.938421191884059E-004
                    49  0.000000000000000E+000
                    50  4.152994126071337E-004
                    51 -1.202181763177047E-003
                    52 -2.161033785550173E-004
                    53  0.000000000000000E+000
                    54  6.314946174805329E-006
                    55  7.775315956536578E-005
                    56  0.000000000000000E+000
                    57  0.705712071009990     
                    58  6.601439168602900E-003
                    59 -9.555099932812439E-003
                    60  0.000000000000000E+000
                    61  1.949207856645474E-005
                    62  1.490795468629251E-004
                    63  0.000000000000000E+000
                    64  1.603858325389509E-003
                    65 -1.147179104235475E-003
                    66  1.122155934457508E-004
                    67  0.000000000000000E+000
                    68 -1.775229606907851E-004
                    69 -4.880418374058220E-004
                    70  0.000000000000000E+000
                    71  0.705712071009990     
                    72  6.601439168602900E-003
                    73 -9.555099932812439E-003
                    74  0.000000000000000E+000
                    75 -1.949207856645474E-005
                    76  1.490795468629251E-004
                    77  0.000000000000000E+000
                    78 -1.603858325389509E-003
                    79 -1.147179104235475E-003
                    80  1.122155934457508E-004
                    81  0.000000000000000E+000
                    82  1.775229606907851E-004
                    83 -4.880418374058220E-004
                    84  0.000000000000000E+000
                    85  5.061534402437330E-004
                    86  3.228476916967440E-004
                    87  0.000000000000000E+000
                    88  0.000000000000000E+000
                    89  2.485537835683326E-004
                    90 -7.662231501822219E-004
                    91  8.675027360318777E-004
                    92  0.000000000000000E+000
                    93  3.573198772072014E-004
                    94 -1.881337695567096E-004
                    95 -7.662231501822219E-004
                    96  8.675027360318777E-004
                    97  0.000000000000000E+000
                    98 -3.573198772072014E-004
                    99 -1.881337695567096E-004
 Sym= __5_A1_
 Ene=   5.00000000000000     
 Spin= Alpha
 Occup=    1.00000000000000     
                     1  1.551589270964266E-002
                     2 -0.670474244185797     
                     3  8.169657587141131E-002
                     4  0.000000000000000E+000
                     5  0.000000000000000E+000
                     6  0.167922461922180     
                     7  0.000000000000000E+000
                     8  0.000000000000000E+000
                     9 -3.552188616196536E-002
                    10 -4.267804289949064E-003
                    11  0.000000000000000E+000
                    12  0.000000000000000E+000
                    13  1.298687738116659E-002
                    14  0.000000000000000E+000
                    15  1.956022171928589E-003
                    16 -0.134907405860931     
                    17  9.091469597633893E-002
                    18  0.000000000000000E+000
                    19  0.000000000000000E+000
                    20 -4.729104119221503E-002
                    21  0.000000000000000E+000
                    22  0.000000000000000E+000
                    23  3.786402837388708E-002
                    24 -9.104582495996592E-004
                    25  0.000000000000000E+000
                    26  0.000000000000000E+000
                    27  3.357121750055526E-003
                    28  0.000000000000000E+000
                    29  1.093535717408874E-002
                    30 -0.367708906156784     
                    31  0.157267116661549     
                    32  0.000000000000000E+000
                    33  0.182160889211476     
                    34 -3.362004705145211E-002
                    35  0.000000000000000E+000
                    36 -8.360813413811792E-002
                    37  1.976410601673791E-002
                    38  3.054558793107464E-003
                    39  0.000000000000000E+000
                    40  1.550647559009618E-002
                    41  1.772367493983077E-002
                    42  0.000000000000000E+000
                    43  1.093535717408874E-002
                    44 -0.367708906156784     
                    45  0.157267116661549     
                    46  0.000000000000000E+000
                    47 -0.182160889211476     
                    48 -3.362004705145211E-002
                    49  0.000000000000000E+000
                    50  8.360813413811792E-002
                    51  1.976410601673791E-002
                    52  3.054558793107464E-003
                    53  0.000000000000000E+000
                    54 -1.550647559009618E-002
                    55  1.772367493983077E-002
                    56  0.000000000000000E+000
                    57  5.499704155943872E-003
                    58 -0.162028465010188     
                    59  3.188884642098441E-002
                    60  0.000000000000000E+000
                    61  4.426768374683612E-002
                    62 -5.271079775795387E-002
                    63  0.000000000000000E+000
                    64  6.290205907145164E-003
                    65  1.693221295501589E-002
                    66 -6.592648750098126E-003
                    67  0.000000000000000E+000
                    68  2.784507356897162E-003
                    69  2.119415165219014E-003
                    70  0.000000000000000E+000
                    71  5.499704155943872E-003
                    72 -0.162028465010188     
                    73  3.188884642098441E-002
                    74  0.000000000000000E+000
                    75 -4.426768374683612E-002
                    76 -5.271079775795387E-002
                    77  0.000000000000000E+000
                    78 -6.290205907145164E-003
                    79  1.693221295501589E-002
                    80 -6.592648750098126E-003
                    81  0.000000000000000E+000
                    82 -2.784507356897162E-003
                    83  2.119415165219014E-003
                    84  0.000000000000000E+000
                    85 -2.133411919461945E-002
                    86  1.585687838607617E-002
                    87  0.000000000000000E+000
                    88  0.000000000000000E+000
                    89 -2.613392254328104E-003
                    90 -2.720561497543280E-002
                    91  8.386004599804509E-003
                    92  0.000000000000000E+000
                    93  1.458590197386107E-003
                    94 -2.325522828109356E-003
                    95 -2.720561497543280E-002
                    96  8.386004599804509E-003
                    97  0.000000000000000E+000