[Molden Format]
[Atoms] AU
  N     1    7     0.0000000000    0.0000000000    2.7932568500        
  C     2    6     0.0000000000    0.0000000000   -2.4729301700        
  C     3    6     0.0000000000    2.0973788500    1.4863541000        
  C     4    6     0.0000000000   -2.0973788500    1.4863541000        
  C     5    6     0.0000000000    2.2864295800   -1.1377395100        
  C     6    6     0.0000000000   -2.2864295800   -1.1377395100        
  H     7    1     0.0000000000    0.0000000000   -4.5180167900        
  H     8    1     0.0000000000    4.0942013000   -2.0828410300        
  H     9    1     0.0000000000   -4.0942013000   -2.0828410300        
[5D7F]
[GTO]
  1  0
   s     9 1.00
  0.904600D+04  0.700000D-03
  0.135700D+04  0.538900D-02
  0.309300D+03  0.274060D-01
  0.877300D+02  0.103207D+00
  0.285600D+02  0.278723D+00
  0.102100D+02  0.448540D+00
  0.383800D+01  0.278238D+00
  0.746600D+00  0.154400D-01
  0.224800D+00 -0.286400D-02
   s     9 1.00
  0.904600D+04 -0.153000D-03
  0.135700D+04 -0.120800D-02
  0.309300D+03 -0.599200D-02
  0.877300D+02 -0.245440D-01
  0.285600D+02 -0.674590D-01
  0.102100D+02 -0.158078D+00
  0.383800D+01 -0.121831D+00
  0.746600D+00  0.549003D+00
  0.224800D+00  0.578815D+00
   s     1 1.00
  0.224800D+00  0.100000D+01
   p     4 1.00
  0.135500D+02  0.399190D-01
  0.291700D+01  0.217169D+00
  0.797300D+00  0.510319D+00
  0.218500D+00  0.462214D+00
   p     1 1.00
  0.218500D+00  0.100000D+01
   d     1 1.00
  0.817000D+00  0.100000D+01
  
  2  0
   s     9 1.00
  0.666500D+04  0.692000D-03
  0.100000D+04  0.532900D-02
  0.228000D+03  0.270770D-01
  0.647100D+02  0.101718D+00
  0.210600D+02  0.274740D+00
  0.749500D+01  0.448564D+00
  0.279700D+01  0.285074D+00
  0.521500D+00  0.152040D-01
  0.159600D+00 -0.319100D-02
   s     9 1.00
  0.666500D+04 -0.146000D-03
  0.100000D+04 -0.115400D-02
  0.228000D+03 -0.572500D-02
  0.647100D+02 -0.233120D-01
  0.210600D+02 -0.639550D-01
  0.749500D+01 -0.149981D+00
  0.279700D+01 -0.127262D+00
  0.521500D+00  0.544529D+00
  0.159600D+00  0.580496D+00
   s     1 1.00
  0.159600D+00  0.100000D+01
   p     4 1.00
  0.943900D+01  0.381090D-01
  0.200200D+01  0.209480D+00
  0.545600D+00  0.508557D+00
  0.151700D+00  0.468842D+00
   p     1 1.00
  0.151700D+00  0.100000D+01
   d     1 1.00
  0.550000D+00  0.100000D+01
  
  3  0
   s     9 1.00
  0.666500D+04  0.692000D-03
  0.100000D+04  0.532900D-02
  0.228000D+03  0.270770D-01
  0.647100D+02  0.101718D+00
  0.210600D+02  0.274740D+00
  0.749500D+01  0.448564D+00
  0.279700D+01  0.285074D+00
  0.521500D+00  0.152040D-01
  0.159600D+00 -0.319100D-02
   s     9 1.00
  0.666500D+04 -0.146000D-03
  0.100000D+04 -0.115400D-02
  0.228000D+03 -0.572500D-02
  0.647100D+02 -0.233120D-01
  0.210600D+02 -0.639550D-01
  0.749500D+01 -0.149981D+00
  0.279700D+01 -0.127262D+00
  0.521500D+00  0.544529D+00
  0.159600D+00  0.580496D+00
   s     1 1.00
  0.159600D+00  0.100000D+01
   p     4 1.00
  0.943900D+01  0.381090D-01
  0.200200D+01  0.209480D+00
  0.545600D+00  0.508557D+00
  0.151700D+00  0.468842D+00
   p     1 1.00
  0.151700D+00  0.100000D+01
   d     1 1.00
  0.550000D+00  0.100000D+01
  
  4  0
   s     9 1.00
  0.666500D+04  0.692000D-03
  0.100000D+04  0.532900D-02
  0.228000D+03  0.270770D-01
  0.647100D+02  0.101718D+00
  0.210600D+02  0.274740D+00
  0.749500D+01  0.448564D+00
  0.279700D+01  0.285074D+00
  0.521500D+00  0.152040D-01
  0.159600D+00 -0.319100D-02
   s     9 1.00
  0.666500D+04 -0.146000D-03
  0.100000D+04 -0.115400D-02
  0.228000D+03 -0.572500D-02
  0.647100D+02 -0.233120D-01
  0.210600D+02 -0.639550D-01
  0.749500D+01 -0.149981D+00
  0.279700D+01 -0.127262D+00
  0.521500D+00  0.544529D+00
  0.159600D+00  0.580496D+00
   s     1 1.00
  0.159600D+00  0.100000D+01
   p     4 1.00
  0.943900D+01  0.381090D-01
  0.200200D+01  0.209480D+00
  0.545600D+00  0.508557D+00
  0.151700D+00  0.468842D+00
   p     1 1.00
  0.151700D+00  0.100000D+01
   d     1 1.00
  0.550000D+00  0.100000D+01
  
  5  0
   s     9 1.00
  0.666500D+04  0.692000D-03
  0.100000D+04  0.532900D-02
  0.228000D+03  0.270770D-01
  0.647100D+02  0.101718D+00
  0.210600D+02  0.274740D+00
  0.749500D+01  0.448564D+00
  0.279700D+01  0.285074D+00
  0.521500D+00  0.152040D-01
  0.159600D+00 -0.319100D-02
   s     9 1.00
  0.666500D+04 -0.146000D-03
  0.100000D+04 -0.115400D-02
  0.228000D+03 -0.572500D-02
  0.647100D+02 -0.233120D-01
  0.210600D+02 -0.639550D-01
  0.749500D+01 -0.149981D+00
  0.279700D+01 -0.127262D+00
  0.521500D+00  0.544529D+00
  0.159600D+00  0.580496D+00
   s     1 1.00
  0.159600D+00  0.100000D+01
   p     4 1.00
  0.943900D+01  0.381090D-01
  0.200200D+01  0.209480D+00
  0.545600D+00  0.508557D+00
  0.151700D+00  0.468842D+00
   p     1 1.00
  0.151700D+00  0.100000D+01
   d     1 1.00
  0.550000D+00  0.100000D+01
  
  6  0
   s     9 1.00
  0.666500D+04  0.692000D-03
  0.100000D+04  0.532900D-02
  0.228000D+03  0.270770D-01
  0.647100D+02  0.101718D+00
  0.210600D+02  0.274740D+00
  0.749500D+01  0.448564D+00
  0.279700D+01  0.285074D+00
  0.521500D+00  0.152040D-01
  0.159600D+00 -0.319100D-02
   s     9 1.00
  0.666500D+04 -0.146000D-03
  0.100000D+04 -0.115400D-02
  0.228000D+03 -0.572500D-02
  0.647100D+02 -0.233120D-01
  0.210600D+02 -0.639550D-01
  0.749500D+01 -0.149981D+00
  0.279700D+01 -0.127262D+00
  0.521500D+00  0.544529D+00
  0.159600D+00  0.580496D+00
   s     1 1.00
  0.159600D+00  0.100000D+01
   p     4 1.00
  0.943900D+01  0.381090D-01
  0.200200D+01  0.209480D+00
  0.545600D+00  0.508557D+00
  0.151700D+00  0.468842D+00
   p     1 1.00
  0.151700D+00  0.100000D+01
   d     1 1.00
  0.550000D+00  0.100000D+01
  
  7  0
   s     4 1.00
  0.130100D+02  0.196850D-01
  0.196200D+01  0.137977D+00
  0.444600D+00  0.478148D+00
  0.122000D+00  0.501240D+00
   s     1 1.00
  0.122000D+00  0.100000D+01
   p     1 1.00
  0.727000D+00  0.100000D+01
  
  8  0
   s     4 1.00
  0.130100D+02  0.196850D-01
  0.196200D+01  0.137977D+00
  0.444600D+00  0.478148D+00
  0.122000D+00  0.501240D+00
   s     1 1.00
  0.122000D+00  0.100000D+01
   p     1 1.00
  0.727000D+00  0.100000D+01
  
  9  0
   s     4 1.00
  0.130100D+02  0.196850D-01
  0.196200D+01  0.137977D+00
  0.444600D+00  0.478148D+00
  0.122000D+00  0.501240D+00
   s     1 1.00
  0.122000D+00  0.100000D+01
   p     1 1.00
  0.727000D+00  0.100000D+01
  
[MO]
 Sym= __1_A1_
 Ene=   1.00000000000000     
 Spin= Alpha
 Occup=    1.00000000000000     
                     1   1.00140419595795     
                     2  6.786339389240225E-003
                     3 -1.076074267802758E-002
                     4  0.000000000000000E+000
                     5  0.000000000000000E+000
                     6 -2.924493282103239E-003
                     7  0.000000000000000E+000
                     8  0.000000000000000E+000
                     9  4.110761078791910E-003
                    10 -4.295564211036683E-006
                    11  0.000000000000000E+000
                    12  0.000000000000000E+000
                    13 -3.802908385119380E-004
                    14  0.000000000000000E+000
                    15 -1.784251106058143E-004
                    16 -6.382011112227315E-004
                    17  4.149421463906310E-003
                    18  0.000000000000000E+000
                    19  0.000000000000000E+000
                    20 -8.701231669085442E-005
                    21  0.000000000000000E+000
                    22  0.000000000000000E+000
                    23  1.711120232706116E-003
                    24  1.060109256922083E-004
                    25  0.000000000000000E+000
                    26  0.000000000000000E+000
                    27 -3.613572565966406E-005
                    28  0.000000000000000E+000
                    29  7.280859853146110E-005
                    30 -1.065286321018097E-004
                    31  3.918971572629043E-003
                    32  0.000000000000000E+000
                    33 -7.338207666253782E-005
                    34 -1.919624973572999E-004
                    35  0.000000000000000E+000
                    36 -2.027449952889972E-003
                    37  3.252549462787047E-005
                    38 -2.212914589208250E-005
                    39  0.000000000000000E+000
                    40  5.132653828378819E-004
                    41  2.454627594194226E-004
                    42  0.000000000000000E+000
                    43  7.280859853146110E-005
                    44 -1.065286321018097E-004
                    45  3.918971572629043E-003
                    46  0.000000000000000E+000
                    47  7.338207666253782E-005
                    48 -1.919624973572999E-004
                    49  0.000000000000000E+000
                    50  2.027449952889972E-003
                    51  3.252549462787047E-005
                    52 -2.212914589208250E-005
                    53  0.000000000000000E+000
                    54 -5.132653828378819E-004
                    55  2.454627594194226E-004
                    56  0.000000000000000E+000
                    57  7.572990488136014E-005
                    58  2.377520729067806E-004
                    59 -2.801359898161571E-003
                    60  0.000000000000000E+000
                    61  5.817285461695653E-005
                    62 -7.348106328558207E-005
                    63  0.000000000000000E+000
                    64  2.030481176293445E-003
                    65 -3.325549786597751E-004
                    66  3.860531341870526E-005
                    67  0.000000000000000E+000
                    68  1.604099837425906E-004
                    69 -8.921361923070076E-006
                    70  0.000000000000000E+000
                    71  7.572990488136014E-005
                    72  2.377520729067806E-004
                    73 -2.801359898161571E-003
                    74  0.000000000000000E+000
                    75 -5.817285461695653E-005
                    76 -7.348106328558207E-005
                    77  0.000000000000000E+000
                    78 -2.030481176293445E-003
                    79 -3.325549786597751E-004
                    80  3.860531341870526E-005
                    81  0.000000000000000E+000
                    82 -1.604099837425906E-004
                    83 -8.921361923070076E-006
                    84  0.000000000000000E+000
                    85 -1.160758878484461E-004
                    86  4.551779958651503E-004
                    87  0.000000000000000E+000
                    88  0.000000000000000E+000
                    89 -6.317422296822562E-005
                    90 -1.274433256030441E-004
                    91 -4.012533147008293E-004
                    92  0.000000000000000E+000
                    93 -9.278173137033953E-005
                    94 -1.750459402477236E-005
                    95 -1.274433256030441E-004
                    96 -4.012533147008293E-004
                    97  0.000000000000000E+000
                    98  9.278173137033953E-005
                    99 -1.750459402477236E-005
 Sym= __2_A1_
 Ene=   2.00000000000000     
 Spin= Alpha
 Occup=    1.00000000000000     
                     1 -2.118727214090686E-004
                     2  1.131102444693503E-003
                     3 -4.025383503646032E-003
                     4  0.000000000000000E+000
                     5  0.000000000000000E+000
                     6  2.475063649267887E-004
                     7  0.000000000000000E+000
                     8  0.000000000000000E+000
                     9  1.243037283425216E-003
                    10  1.153574885192215E-004
                    11  0.000000000000000E+000
                    12  0.000000000000000E+000
                    13  6.366921221018682E-004
                    14  0.000000000000000E+000
                    15  4.829014576446662E-004
                    16 -5.797205088593748E-004
                    17  3.149849887850427E-003
                    18  0.000000000000000E+000
                    19  0.000000000000000E+000
                    20 -3.523419473663089E-005
                    21  0.000000000000000E+000
                    22  0.000000000000000E+000
                    23  1.297551061641272E-003
                    24 -4.938574946121188E-005
                    25  0.000000000000000E+000
                    26  0.000000000000000E+000
                    27 -2.942418734459910E-004
                    28  0.000000000000000E+000
                    29  0.707713847614291     
                    30  4.563441311551607E-003
                    31 -3.069384759564634E-003
                    32  0.000000000000000E+000
                    33 -1.743918943850318E-003
                    34 -2.456424267213546E-004
                    35  0.000000000000000E+000
                    36 -2.205377977669827E-004
                    37  1.121944421160327E-003
                    38  1.924109052328818E-004
                    39  0.000000000000000E+000
                    40 -7.294569991246080E-004
                    41 -4.471669836505852E-004
                    42  0.000000000000000E+000
                    43  0.707713847614291     
                    44  4.563441311551607E-003
                    45 -3.069384759564634E-003
                    46  0.000000000000000E+000
                    47  1.743918943850318E-003
                    48 -2.456424267213546E-004
                    49  0.000000000000000E+000
                    50  2.205377977669827E-004
                    51  1.121944421160327E-003
                    52  1.924109052328818E-004
                    53  0.000000000000000E+000
                    54  7.294569991246080E-004
                    55 -4.471669836505852E-004
                    56  0.000000000000000E+000
                    57  1.395342994327748E-002
                    58 -2.747224583718271E-004
                    59  3.977267370384277E-005
                    60  0.000000000000000E+000
                    61  8.197664814548875E-005
                    62 -3.492444237807674E-005
                    63  0.000000000000000E+000
                    64  8.897301871574170E-004
                    65  9.745729844769767E-004
                    66 -1.879950023351608E-004
                    67  0.000000000000000E+000
                    68 -3.104583739332964E-004
                    69  1.201703706694534E-004
                    70  0.000000000000000E+000
                    71  1.395342994327748E-002
                    72 -2.747224583718271E-004
                    73  3.977267370384277E-005
                    74  0.000000000000000E+000
                    75 -8.197664814548875E-005
                    76 -3.492444237807674E-005
                    77  0.000000000000000E+000
                    78 -8.897301871574170E-004
                    79  9.745729844769767E-004
                    80 -1.879950023351608E-004
                    81  0.000000000000000E+000
                    82  3.104583739332964E-004
                    83  1.201703706694534E-004
                    84  0.000000000000000E+000
                    85  1.434849851446110E-004
                    86  3.973158159053230E-004
                    87  0.000000000000000E+000
                    88  0.000000000000000E+000
                    89  8.598037497648652E-006
                    90 -2.001768438372189E-004
                    91  2.968560844886542E-004
                    92  0.000000000000000E+000
                    93 -3.753125922786284E-005
                    94  5.359352572161782E-005
                    95 -2.001768438372189E-004
                    96  2.968560844886542E-004
                    97  0.000000000000000E+000
                    98  3.753125922786284E-005
                    99  5.359352572161782E-005
 Sym= __3_A1_
 Ene=   3.00000000000000     
 Spin= Alpha
 Occup=    1.00000000000000     
                     1 -2.181609028317712E-005
                     2 -1.026759017064957E-004
                     3  1.232814929978913E-004
                     4  0.000000000000000E+000
                     5  0.000000000000000E+000
                     6  3.664309417452766E-005
                     7  0.000000000000000E+000
                     8  0.000000000000000E+000
                     9  7.955282307071452E-005
                    10 -3.601620564158736E-006
                    11  0.000000000000000E+000
                    12  0.000000000000000E+000
                    13 -3.014637741521718E-006
                    14  0.000000000000000E+000
                    15  0.998099049230266     
                    16  8.899788793299581E-003
                    17 -1.136401801029094E-002
                    18  0.000000000000000E+000
                    19  0.000000000000000E+000
                    20 -3.375229854023232E-006
                    21  0.000000000000000E+000
                    22  0.000000000000000E+000
                    23 -1.707449812047876E-003
                    24  4.093434917533555E-004
                    25  0.000000000000000E+000
                    26  0.000000000000000E+000
                    27 -4.057418334621452E-004
                    28  0.000000000000000E+000
                    29 -1.721918870077369E-003
                    30 -3.265512813016404E-004
                    31  5.576459308239891E-004
                    32  0.000000000000000E+000
                    33 -4.869484426680962E-005
                    34 -1.075979375689891E-006
                    35  0.000000000000000E+000
                    36  9.727244964213612E-005
                    37 -2.753518762944343E-004
                    38  4.938794689561828E-005
                    39  0.000000000000000E+000
                    40  3.393656473428539E-005
                    41 -6.545653056961869E-005
                    42  0.000000000000000E+000
                    43 -1.721918870077369E-003
                    44 -3.265512813016404E-004
                    45  5.576459308239891E-004
                    46  0.000000000000000E+000
                    47  4.869484426680962E-005
                    48 -1.075979375689891E-006
                    49  0.000000000000000E+000
                    50 -9.727244964213612E-005
                    51 -2.753518762944343E-004
                    52  4.938794689561828E-005
                    53  0.000000000000000E+000
                    54 -3.393656473428539E-005
                    55 -6.545653056961869E-005
                    56  0.000000000000000E+000
                    57  5.823001550653541E-002
                    58 -1.240698244799687E-004
                    59  2.047990063018047E-003
                    60  0.000000000000000E+000
                    61  1.031700241519152E-004
                    62  5.289534134562092E-005
                    63  0.000000000000000E+000
                    64 -1.481564702549586E-003
                    65 -3.815777517569579E-004
                    66 -6.900164807424811E-005
                    67  0.000000000000000E+000
                    68 -8.363989040377259E-005
                    69  3.105986266745370E-004
                    70  0.000000000000000E+000
                    71  5.823001550653541E-002
                    72 -1.240698244799687E-004
                    73  2.047990063018047E-003
                    74  0.000000000000000E+000
                    75 -1.031700241519152E-004
                    76  5.289534134562092E-005
                    77  0.000000000000000E+000
                    78  1.481564702549586E-003
                    79 -3.815777517569579E-004
                    80 -6.900164807424811E-005
                    81  0.000000000000000E+000
                    82  8.363989040377259E-005
                    83  3.105986266745370E-004
                    84  0.000000000000000E+000
                    85 -8.212241237442446E-004
                    86  1.232863007489288E-003
                    87  0.000000000000000E+000
                    88  0.000000000000000E+000
                    89 -5.208646679954576E-004
                    90  1.826266159624279E-004
                    91  3.705768436259210E-004
                    92  0.000000000000000E+000
                    93 -7.945611033058593E-005
                    94  6.687671126301705E-005
                    95  1.826266159624279E-004
                    96  3.705768436259210E-004
                    97  0.000000000000000E+000
                    98  7.945611033058593E-005
                    99  6.687671126301705E-005
 Sym= __4_A1_
 Ene=   4.00000000000000     
 Spin= Alpha
 Occup=    1.00000000000000     
                     1  7.116676639429306E-005
                     2  1.873600697187084E-004
                     3 -1.145403116464284E-003
                     4  0.000000000000000E+000
                     5  0.000000000000000E+000
                     6 -2.028455566023756E-005
                     7  0.000000000000000E+000
                     8  0.000000000000000E+000
                     9  4.771157019543784E-004
                    10  4.618485910150958E-005
                    11  0.000000000000000E+000
                    12  0.000000000000000E+000
                    13 -5.323963746807146E-005
                    14  0.000000000000000E+000
                    15 -8.324818170207922E-002
                    16 -1.703487432935170E-003
                    17  5.744079112627186E-003
                    18  0.000000000000000E+000
                    19  0.000000000000000E+000
                    20 -5.787215406608332E-005
                    21  0.000000000000000E+000
                    22  0.000000000000000E+000
                    23  2.336279106323295E-003
                    24 -3.580027526144511E-004
                    25  0.000000000000000E+000
                    26  0.000000000000000E+000
                    27  3.867344529018158E-004
                    28  0.000000000000000E+000
                    29 -1.433094752435211E-002
                    30 -6.399585624019058E-004
                    31  3.538995131800705E-003
                    32  0.000000000000000E+000
                    33  2.647870052681557E-005
                    34  1.941410768673413E-004
                    35  0.000000000000000E+000
                    36 -4.153287365846728E-004
                    37 -1.202429689653314E-003
                    38 -2.161942352946281E-004
                    39  0.000000000000000E+000
                    40 -6.513766474706818E-006
                    41  7.772184688647821E-005
                    42  0.000000000000000E+000
                    43 -1.433094752435211E-002
                    44 -6.399585624019058E-004
                    45  3.538995131800705E-003
                    46  0.000000000000000E+000
                    47 -2.647870052681557E-005
                    48  1.941410768673413E-004
                    49  0.000000000000000E+000
                    50  4.153287365846728E-004
                    51 -1.202429689653314E-003
                    52 -2.161942352946281E-004
                    53  0.000000000000000E+000
                    54  6.513766474706818E-006
                    55  7.772184688647821E-005
                    56  0.000000000000000E+000
                    57  0.705703914098646     
                    58  6.601804681666012E-003
                    59 -9.556603524581408E-003
                    60  0.000000000000000E+000
                    61  1.940787085807093E-005
                    62  1.489621671422695E-004
                    63  0.000000000000000E+000
                    64  1.604668705895340E-003
                    65 -1.147433885556972E-003
                    66  1.127325315132301E-004
                    67  0.000000000000000E+000
                    68 -1.779287221776999E-004
                    69 -4.877951338695738E-004
                    70  0.000000000000000E+000
                    71  0.705703914098646     
                    72  6.601804681666012E-003
                    73 -9.556603524581408E-003
                    74  0.000000000000000E+000
                    75 -1.940787085807093E-005
                    76  1.489621671422695E-004
                    77  0.000000000000000E+000
                    78 -1.604668705895340E-003
                    79 -1.147433885556972E-003
                    80  1.127325315132301E-004
                    81  0.000000000000000E+000
                    82  1.779287221776999E-004
                    83 -4.877951338695738E-004
                    84  0.000000000000000E+000
                    85  5.062558691664313E-004
                    86  3.228789770101575E-004
                    87  0.000000000000000E+000
                    88  0.000000000000000E+000
                    89  2.485548373883152E-004
                    90 -7.663088385776235E-004
                    91  8.672812148834431E-004
                    92  0.000000000000000E+000
                    93  3.573350138428972E-004
                    94 -1.881286101297723E-004
                    95 -7.663088385776235E-004
                    96  8.672812148834431E-004
                    97  0.000000000000000E+000
                    98 -3.573350138428972E-004
                    99 -1.881286101297723E-004
 Sym= __5_A1_
 Ene=   5.00000000000000     
 Spin= Alpha
 Occup=    1.00000000000000     
                     1  1.551763838468202E-002
                     2 -0.670476580458376     
                     3  8.170378645851240E-002
                     4  0.000000000000000E+000
                     5  0.000000000000000E+000
                     6  0.167914086135671     
                     7  0.000000000000000E+000
                     8  0.000000000000000E+000
                     9 -3.552105320798857E-002
                    10 -4.264771297102136E-003
                    11  0.000000000000000E+000
                    12  0.000000000000000E+000
                    13  1.298900917397537E-002
                    14  0.000000000000000E+000
                    15  1.957027360782475E-003
                    16 -0.134910705238424     
                    17  9.090622545863739E-002
                    18  0.000000000000000E+000
                    19  0.000000000000000E+000
                    20 -4.729189475546254E-002
                    21  0.000000000000000E+000
                    22  0.000000000000000E+000
                    23  3.786228254362960E-002
                    24 -9.108237728619017E-004
                    25  0.000000000000000E+000
                    26  0.000000000000000E+000
                    27  3.357155341757112E-003
                    28  0.000000000000000E+000
                    29  1.093596427129977E-002
                    30 -0.367710838740917     
                    31  0.157283420336619     
                    32  0.000000000000000E+000
                    33  0.182168044829855     
                    34 -3.360748687913891E-002
                    35  0.000000000000000E+000
                    36 -8.361146186015775E-002
                    37  1.975214245739510E-002
                    38  3.057847697118290E-003
                    39  0.000000000000000E+000
                    40  1.550310971596951E-002
                    41  1.772482011271241E-002
                    42  0.000000000000000E+000
                    43  1.093596427129977E-002
                    44 -0.367710838740917     
                    45  0.157283420336619     
                    46  0.000000000000000E+000
                    47 -0.182168044829855     
                    48 -3.360748687913891E-002
                    49  0.000000000000000E+000
                    50  8.361146186015775E-002
                    51  1.975214245739510E-002
                    52  3.057847697118290E-003
                    53  0.000000000000000E+000
                    54 -1.550310971596951E-002
                    55  1.772482011271241E-002
                    56  0.000000000000000E+000
                    57  5.499961335307074E-003
                    58 -0.162030600995455     
                    59  3.188324559127011E-002
                    60  0.000000000000000E+000
                    61  4.427081421632734E-002
                    62 -5.271473228852688E-002
                    63  0.000000000000000E+000
                    64  6.284088721603281E-003
                    65  1.692428358446120E-002
                    66 -6.593354826924744E-003
                    67  0.000000000000000E+000
                    68  2.784041690957247E-003
                    69  2.119809772670332E-003
                    70  0.000000000000000E+000
                    71  5.499961335307074E-003
                    72 -0.162030600995455     
                    73  3.188324559127011E-002
                    74  0.000000000000000E+000
                    75 -4.427081421632734E-002
                    76 -5.271473228852688E-002
                    77  0.000000000000000E+000
                    78 -6.284088721603281E-003
                    79  1.692428358446120E-002
                    80 -6.593354826924744E-003
                    81  0.000000000000000E+000
                    82 -2.784041690957247E-003
                    83  2.119809772670332E-003
                    84  0.000000000000000E+000
                    85 -2.133449586782915E-002
                    86  1.585732792957681E-002
                    87  0.000000000000000E+000
                    88  0.000000000000000E+000
                    89 -2.613284030627945E-003
                    90 -2.719667140894863E-002
                    91  8.381311766782529E-003
                    92  0.000000000000000E+000
                    93  1.456622792343701E-003
                    94 -2.326683387976007E-003
                    95 -2.719667140894863E-002
                    96  8.381311766782529E-003
                    97  0.000000000000000E+000