[Molden Format]
[Atoms] AU
  N     1    7     0.0000000000    0.0000000000    2.7935113000        
  C     2    6     0.0000000000    0.0000000000   -2.4730801300        
  C     3    6     0.0000000000    2.1001577500    1.4879288300        
  C     4    6     0.0000000000   -2.1001577500    1.4879288300        
  C     5    6     0.0000000000    2.2890629200   -1.1374055000        
  C     6    6     0.0000000000   -2.2890629200   -1.1374055000        
  H     7    1     0.0000000000    0.0000000000   -4.5196091200        
  H     8    1     0.0000000000    4.0946996900   -2.0854975700        
  H     9    1     0.0000000000   -4.0946996900   -2.0854975700        
[5D7F]
[GTO]
  1  0
   s     9 1.00
  0.904600D+04  0.700000D-03
  0.135700D+04  0.538900D-02
  0.309300D+03  0.274060D-01
  0.877300D+02  0.103207D+00
  0.285600D+02  0.278723D+00
  0.102100D+02  0.448540D+00
  0.383800D+01  0.278238D+00
  0.746600D+00  0.154400D-01
  0.224800D+00 -0.286400D-02
   s     9 1.00
  0.904600D+04 -0.153000D-03
  0.135700D+04 -0.120800D-02
  0.309300D+03 -0.599200D-02
  0.877300D+02 -0.245440D-01
  0.285600D+02 -0.674590D-01
  0.102100D+02 -0.158078D+00
  0.383800D+01 -0.121831D+00
  0.746600D+00  0.549003D+00
  0.224800D+00  0.578815D+00
   s     1 1.00
  0.224800D+00  0.100000D+01
   p     4 1.00
  0.135500D+02  0.399190D-01
  0.291700D+01  0.217169D+00
  0.797300D+00  0.510319D+00
  0.218500D+00  0.462214D+00
   p     1 1.00
  0.218500D+00  0.100000D+01
   d     1 1.00
  0.817000D+00  0.100000D+01
  
  2  0
   s     9 1.00
  0.666500D+04  0.692000D-03
  0.100000D+04  0.532900D-02
  0.228000D+03  0.270770D-01
  0.647100D+02  0.101718D+00
  0.210600D+02  0.274740D+00
  0.749500D+01  0.448564D+00
  0.279700D+01  0.285074D+00
  0.521500D+00  0.152040D-01
  0.159600D+00 -0.319100D-02
   s     9 1.00
  0.666500D+04 -0.146000D-03
  0.100000D+04 -0.115400D-02
  0.228000D+03 -0.572500D-02
  0.647100D+02 -0.233120D-01
  0.210600D+02 -0.639550D-01
  0.749500D+01 -0.149981D+00
  0.279700D+01 -0.127262D+00
  0.521500D+00  0.544529D+00
  0.159600D+00  0.580496D+00
   s     1 1.00
  0.159600D+00  0.100000D+01
   p     4 1.00
  0.943900D+01  0.381090D-01
  0.200200D+01  0.209480D+00
  0.545600D+00  0.508557D+00
  0.151700D+00  0.468842D+00
   p     1 1.00
  0.151700D+00  0.100000D+01
   d     1 1.00
  0.550000D+00  0.100000D+01
  
  3  0
   s     9 1.00
  0.666500D+04  0.692000D-03
  0.100000D+04  0.532900D-02
  0.228000D+03  0.270770D-01
  0.647100D+02  0.101718D+00
  0.210600D+02  0.274740D+00
  0.749500D+01  0.448564D+00
  0.279700D+01  0.285074D+00
  0.521500D+00  0.152040D-01
  0.159600D+00 -0.319100D-02
   s     9 1.00
  0.666500D+04 -0.146000D-03
  0.100000D+04 -0.115400D-02
  0.228000D+03 -0.572500D-02
  0.647100D+02 -0.233120D-01
  0.210600D+02 -0.639550D-01
  0.749500D+01 -0.149981D+00
  0.279700D+01 -0.127262D+00
  0.521500D+00  0.544529D+00
  0.159600D+00  0.580496D+00
   s     1 1.00
  0.159600D+00  0.100000D+01
   p     4 1.00
  0.943900D+01  0.381090D-01
  0.200200D+01  0.209480D+00
  0.545600D+00  0.508557D+00
  0.151700D+00  0.468842D+00
   p     1 1.00
  0.151700D+00  0.100000D+01
   d     1 1.00
  0.550000D+00  0.100000D+01
  
  4  0
   s     9 1.00
  0.666500D+04  0.692000D-03
  0.100000D+04  0.532900D-02
  0.228000D+03  0.270770D-01
  0.647100D+02  0.101718D+00
  0.210600D+02  0.274740D+00
  0.749500D+01  0.448564D+00
  0.279700D+01  0.285074D+00
  0.521500D+00  0.152040D-01
  0.159600D+00 -0.319100D-02
   s     9 1.00
  0.666500D+04 -0.146000D-03
  0.100000D+04 -0.115400D-02
  0.228000D+03 -0.572500D-02
  0.647100D+02 -0.233120D-01
  0.210600D+02 -0.639550D-01
  0.749500D+01 -0.149981D+00
  0.279700D+01 -0.127262D+00
  0.521500D+00  0.544529D+00
  0.159600D+00  0.580496D+00
   s     1 1.00
  0.159600D+00  0.100000D+01
   p     4 1.00
  0.943900D+01  0.381090D-01
  0.200200D+01  0.209480D+00
  0.545600D+00  0.508557D+00
  0.151700D+00  0.468842D+00
   p     1 1.00
  0.151700D+00  0.100000D+01
   d     1 1.00
  0.550000D+00  0.100000D+01
  
  5  0
   s     9 1.00
  0.666500D+04  0.692000D-03
  0.100000D+04  0.532900D-02
  0.228000D+03  0.270770D-01
  0.647100D+02  0.101718D+00
  0.210600D+02  0.274740D+00
  0.749500D+01  0.448564D+00
  0.279700D+01  0.285074D+00
  0.521500D+00  0.152040D-01
  0.159600D+00 -0.319100D-02
   s     9 1.00
  0.666500D+04 -0.146000D-03
  0.100000D+04 -0.115400D-02
  0.228000D+03 -0.572500D-02
  0.647100D+02 -0.233120D-01
  0.210600D+02 -0.639550D-01
  0.749500D+01 -0.149981D+00
  0.279700D+01 -0.127262D+00
  0.521500D+00  0.544529D+00
  0.159600D+00  0.580496D+00
   s     1 1.00
  0.159600D+00  0.100000D+01
   p     4 1.00
  0.943900D+01  0.381090D-01
  0.200200D+01  0.209480D+00
  0.545600D+00  0.508557D+00
  0.151700D+00  0.468842D+00
   p     1 1.00
  0.151700D+00  0.100000D+01
   d     1 1.00
  0.550000D+00  0.100000D+01
  
  6  0
   s     9 1.00
  0.666500D+04  0.692000D-03
  0.100000D+04  0.532900D-02
  0.228000D+03  0.270770D-01
  0.647100D+02  0.101718D+00
  0.210600D+02  0.274740D+00
  0.749500D+01  0.448564D+00
  0.279700D+01  0.285074D+00
  0.521500D+00  0.152040D-01
  0.159600D+00 -0.319100D-02
   s     9 1.00
  0.666500D+04 -0.146000D-03
  0.100000D+04 -0.115400D-02
  0.228000D+03 -0.572500D-02
  0.647100D+02 -0.233120D-01
  0.210600D+02 -0.639550D-01
  0.749500D+01 -0.149981D+00
  0.279700D+01 -0.127262D+00
  0.521500D+00  0.544529D+00
  0.159600D+00  0.580496D+00
   s     1 1.00
  0.159600D+00  0.100000D+01
   p     4 1.00
  0.943900D+01  0.381090D-01
  0.200200D+01  0.209480D+00
  0.545600D+00  0.508557D+00
  0.151700D+00  0.468842D+00
   p     1 1.00
  0.151700D+00  0.100000D+01
   d     1 1.00
  0.550000D+00  0.100000D+01
  
  7  0
   s     4 1.00
  0.130100D+02  0.196850D-01
  0.196200D+01  0.137977D+00
  0.444600D+00  0.478148D+00
  0.122000D+00  0.501240D+00
   s     1 1.00
  0.122000D+00  0.100000D+01
   p     1 1.00
  0.727000D+00  0.100000D+01
  
  8  0
   s     4 1.00
  0.130100D+02  0.196850D-01
  0.196200D+01  0.137977D+00
  0.444600D+00  0.478148D+00
  0.122000D+00  0.501240D+00
   s     1 1.00
  0.122000D+00  0.100000D+01
   p     1 1.00
  0.727000D+00  0.100000D+01
  
  9  0
   s     4 1.00
  0.130100D+02  0.196850D-01
  0.196200D+01  0.137977D+00
  0.444600D+00  0.478148D+00
  0.122000D+00  0.501240D+00
   s     1 1.00
  0.122000D+00  0.100000D+01
   p     1 1.00
  0.727000D+00  0.100000D+01
  
[MO]
 Sym= __1_A1_
 Ene=  0.000000000000000E+000
 Spin= Alpha
 Occup=    2.00000000000000     
                     1   1.00140052606065     
                     2  6.767907774876044E-003
                     3 -1.073843871121017E-002
                     4  0.000000000000000E+000
                     5  0.000000000000000E+000
                     6 -2.918881065788039E-003
                     7  0.000000000000000E+000
                     8  0.000000000000000E+000
                     9  4.105796274332654E-003
                    10 -4.386230994036743E-006
                    11  0.000000000000000E+000
                    12  0.000000000000000E+000
                    13 -3.786795537541982E-004
                    14  0.000000000000000E+000
                    15 -1.781223572468450E-004
                    16 -6.372818898129658E-004
                    17  4.129650190296826E-003
                    18  0.000000000000000E+000
                    19  0.000000000000000E+000
                    20 -8.725750800512871E-005
                    21  0.000000000000000E+000
                    22  0.000000000000000E+000
                    23  1.706485937953322E-003
                    24  1.051054610463247E-004
                    25  0.000000000000000E+000
                    26  0.000000000000000E+000
                    27 -3.679248632967518E-005
                    28  0.000000000000000E+000
                    29  7.178116394401071E-005
                    30 -1.089052094815604E-004
                    31  3.921277989043623E-003
                    32  0.000000000000000E+000
                    33 -7.544892171190081E-005
                    34 -1.908623041440947E-004
                    35  0.000000000000000E+000
                    36 -2.024091441892350E-003
                    37  2.620911618205804E-005
                    38 -2.115582450954313E-005
                    39  0.000000000000000E+000
                    40  5.114427096959435E-004
                    41  2.441599163785444E-004
                    42  0.000000000000000E+000
                    43  7.178116394401071E-005
                    44 -1.089052094815604E-004
                    45  3.921277989043623E-003
                    46  0.000000000000000E+000
                    47  7.544892171190081E-005
                    48 -1.908623041440947E-004
                    49  0.000000000000000E+000
                    50  2.024091441892350E-003
                    51  2.620911618205804E-005
                    52 -2.115582450954313E-005
                    53  0.000000000000000E+000
                    54 -5.114427096959435E-004
                    55  2.441599163785444E-004
                    56  0.000000000000000E+000
                    57  7.541674729314098E-005
                    58  2.363836804293377E-004
                    59 -2.795877778275579E-003
                    60  0.000000000000000E+000
                    61  5.826404491711321E-005
                    62 -7.404983196482995E-005
                    63  0.000000000000000E+000
                    64  2.023459614811386E-003
                    65 -3.367096237923371E-004
                    66  3.784068667805354E-005
                    67  0.000000000000000E+000
                    68  1.594775697482445E-004
                    69 -8.960844305892214E-006
                    70  0.000000000000000E+000
                    71  7.541674729314098E-005
                    72  2.363836804293377E-004
                    73 -2.795877778275579E-003
                    74  0.000000000000000E+000
                    75 -5.826404491711321E-005
                    76 -7.404983196482995E-005
                    77  0.000000000000000E+000
                    78 -2.023459614811386E-003
                    79 -3.367096237923371E-004
                    80  3.784068667805354E-005
                    81  0.000000000000000E+000
                    82 -1.594775697482445E-004
                    83 -8.960844305892214E-006
                    84  0.000000000000000E+000
                    85 -1.143026285383473E-004
                    86  4.534906075167267E-004
                    87  0.000000000000000E+000
                    88  0.000000000000000E+000
                    89 -6.279642479357747E-005
                    90 -1.268468811896583E-004
                    91 -4.006492056704481E-004
                    92  0.000000000000000E+000
                    93 -9.259524854236173E-005
                    94 -1.738994410369747E-005
                    95 -1.268468811896583E-004
                    96 -4.006492056704481E-004
                    97  0.000000000000000E+000
                    98  9.259524854236173E-005
                    99 -1.738994410369747E-005
 Sym= __2_A1_
 Ene=  0.000000000000000E+000
 Spin= Alpha
 Occup=    2.00000000000000     
                     1 -2.103959044683666E-004
                     2  1.127770780683894E-003
                     3 -3.989886003432954E-003
                     4  0.000000000000000E+000
                     5  0.000000000000000E+000
                     6  2.456011253957706E-004
                     7  0.000000000000000E+000
                     8  0.000000000000000E+000
                     9  1.232220341934894E-003
                    10  1.151016977051212E-004
                    11  0.000000000000000E+000
                    12  0.000000000000000E+000
                    13  6.357743562402982E-004
                    14  0.000000000000000E+000
                    15  4.739628139393019E-004
                    16 -5.817321050316514E-004
                    17  3.119774581609108E-003
                    18  0.000000000000000E+000
                    19  0.000000000000000E+000
                    20 -3.723532891386869E-005
                    21  0.000000000000000E+000
                    22  0.000000000000000E+000
                    23  1.282620748835255E-003
                    24 -4.780601891812067E-005
                    25  0.000000000000000E+000
                    26  0.000000000000000E+000
                    27 -2.922889414451440E-004
                    28  0.000000000000000E+000
                    29  0.707712218566269     
                    30  4.545741544553546E-003
                    31 -3.080829382344082E-003
                    32  0.000000000000000E+000
                    33 -1.738183195301859E-003
                    34 -2.475775712358385E-004
                    35  0.000000000000000E+000
                    36 -2.153443441702133E-004
                    37  1.123895470645173E-003
                    38  1.892156200727747E-004
                    39  0.000000000000000E+000
                    40 -7.246845286124543E-004
                    41 -4.465531108869402E-004
                    42  0.000000000000000E+000
                    43  0.707712218566269     
                    44  4.545741544553546E-003
                    45 -3.080829382344082E-003
                    46  0.000000000000000E+000
                    47  1.738183195301859E-003
                    48 -2.475775712358385E-004
                    49  0.000000000000000E+000
                    50  2.153443441702133E-004
                    51  1.123895470645173E-003
                    52  1.892156200727747E-004
                    53  0.000000000000000E+000
                    54  7.246845286124543E-004
                    55 -4.465531108869402E-004
                    56  0.000000000000000E+000
                    57  1.388832599064849E-002
                    58 -2.744846801115578E-004
                    59  6.509806193014994E-005
                    60  0.000000000000000E+000
                    61  8.212013967769177E-005
                    62 -3.378795077676643E-005
                    63  0.000000000000000E+000
                    64  8.763264975226064E-004
                    65  9.790948001093414E-004
                    66 -1.864882039516447E-004
                    67  0.000000000000000E+000
                    68 -3.074131557689198E-004
                    69  1.195578005527437E-004
                    70  0.000000000000000E+000
                    71  1.388832599064849E-002
                    72 -2.744846801115578E-004
                    73  6.509806193014994E-005
                    74  0.000000000000000E+000
                    75 -8.212013967769177E-005
                    76 -3.378795077676643E-005
                    77  0.000000000000000E+000
                    78 -8.763264975226064E-004
                    79  9.790948001093414E-004
                    80 -1.864882039516447E-004
                    81  0.000000000000000E+000
                    82  3.074131557689198E-004
                    83  1.195578005527437E-004
                    84  0.000000000000000E+000
                    85  1.414036123715783E-004
                    86  3.942898859018738E-004
                    87  0.000000000000000E+000
                    88  0.000000000000000E+000
                    89  8.526843885945902E-006
                    90 -1.988660041997682E-004
                    91  2.987836753147409E-004
                    92  0.000000000000000E+000
                    93 -3.773743197700785E-005
                    94  5.257659843975297E-005
                    95 -1.988660041997682E-004
                    96  2.987836753147409E-004
                    97  0.000000000000000E+000
                    98  3.773743197700785E-005
                    99  5.257659843975297E-005
 Sym= __3_A1_
 Ene=  0.000000000000000E+000
 Spin= Alpha
 Occup=    2.00000000000000     
                     1 -2.222282784937000E-005
                     2 -1.040759775929855E-004
                     3  1.256043269186557E-004
                     4  0.000000000000000E+000
                     5  0.000000000000000E+000
                     6  3.705586656049970E-005
                     7  0.000000000000000E+000
                     8  0.000000000000000E+000
                     9  7.786520172560891E-005
                    10 -3.524102279331154E-006
                    11  0.000000000000000E+000
                    12  0.000000000000000E+000
                    13 -2.973280379618922E-006
                    14  0.000000000000000E+000
                    15  0.998192530004513     
                    16  8.873851438777039E-003
                    17 -1.133813578247653E-002
                    18  0.000000000000000E+000
                    19  0.000000000000000E+000
                    20 -5.350450290755987E-006
                    21  0.000000000000000E+000
                    22  0.000000000000000E+000
                    23 -1.707029446747269E-003
                    24  4.076693461080112E-004
                    25  0.000000000000000E+000
                    26  0.000000000000000E+000
                    27 -4.035400189487724E-004
                    28  0.000000000000000E+000
                    29 -1.693852128444653E-003
                    30 -3.271531469540988E-004
                    31  5.506016532861181E-004
                    32  0.000000000000000E+000
                    33 -4.805598395165294E-005
                    34 -7.164283626184900E-009
                    35  0.000000000000000E+000
                    36  9.719386326597226E-005
                    37 -2.725753717663416E-004
                    38  4.914734409575379E-005
                    39  0.000000000000000E+000
                    40  3.340377595335451E-005
                    41 -6.587910876458242E-005
                    42  0.000000000000000E+000
                    43 -1.693852128444653E-003
                    44 -3.271531469540988E-004
                    45  5.506016532861181E-004
                    46  0.000000000000000E+000
                    47  4.805598395165294E-005
                    48 -7.164283626184900E-009
                    49  0.000000000000000E+000
                    50 -9.719386326597226E-005
                    51 -2.725753717663416E-004
                    52  4.914734409575379E-005
                    53  0.000000000000000E+000
                    54 -3.340377595335451E-005
                    55 -6.587910876458242E-005
                    56  0.000000000000000E+000
                    57  5.739829550911742E-002
                    58 -1.294770465293781E-004
                    59  2.055995472376430E-003
                    60  0.000000000000000E+000
                    61  1.020842804805637E-004
                    62  5.204747333822100E-005
                    63  0.000000000000000E+000
                    64 -1.481359914202399E-003
                    65 -3.762008084736258E-004
                    66 -6.854935640057364E-005
                    67  0.000000000000000E+000
                    68 -8.549718492943041E-005
                    69  3.100080637476414E-004
                    70  0.000000000000000E+000
                    71  5.739829550911742E-002
                    72 -1.294770465293781E-004
                    73  2.055995472376430E-003
                    74  0.000000000000000E+000
                    75 -1.020842804805637E-004
                    76  5.204747333822100E-005
                    77  0.000000000000000E+000
                    78  1.481359914202399E-003
                    79 -3.762008084736258E-004
                    80 -6.854935640057364E-005
                    81  0.000000000000000E+000
                    82  8.549718492943041E-005
                    83  3.100080637476414E-004
                    84  0.000000000000000E+000
                    85 -8.178796860006797E-004
                    86  1.228467537110342E-003
                    87  0.000000000000000E+000
                    88  0.000000000000000E+000
                    89 -5.204883973946517E-004
                    90  1.804011820028479E-004
                    91  3.711938776992594E-004
                    92  0.000000000000000E+000
                    93 -7.866504394026487E-005
                    94  6.713973074793586E-005
                    95  1.804011820028479E-004
                    96  3.711938776992594E-004
                    97  0.000000000000000E+000
                    98  7.866504394026487E-005
                    99  6.713973074793586E-005
 Sym= __4_A1_
 Ene=  0.000000000000000E+000
 Spin= Alpha
 Occup=    2.00000000000000     
                     1  7.052133343791852E-005
                     2  1.852050832744360E-004
                     3 -1.143677679501850E-003
                     4  0.000000000000000E+000
                     5  0.000000000000000E+000
                     6 -1.947329287527550E-005
                     7  0.000000000000000E+000
                     8  0.000000000000000E+000
                     9  4.759503187393618E-004
                    10  4.634067821133585E-005
                    11  0.000000000000000E+000
                    12  0.000000000000000E+000
                    13 -5.289711475533370E-005
                    14  0.000000000000000E+000
                    15 -8.206449542435951E-002
                    16 -1.681011531004250E-003
                    17  5.715351007438448E-003
                    18  0.000000000000000E+000
                    19  0.000000000000000E+000
                    20 -5.651794522110760E-005
                    21  0.000000000000000E+000
                    22  0.000000000000000E+000
                    23  2.329119399079908E-003
                    24 -3.535832885155023E-004
                    25  0.000000000000000E+000
                    26  0.000000000000000E+000
                    27  3.863041860420504E-004
                    28  0.000000000000000E+000
                    29 -1.426786985115436E-002
                    30 -6.404553524962940E-004
                    31  3.535358664354651E-003
                    32  0.000000000000000E+000
                    33  2.653726690355550E-005
                    34  1.945276500033693E-004
                    35  0.000000000000000E+000
                    36 -4.151859214937025E-004
                    37 -1.201487582080268E-003
                    38 -2.166609845307873E-004
                    39  0.000000000000000E+000
                    40 -7.488372917806735E-006
                    41  7.686201512025198E-005
                    42  0.000000000000000E+000
                    43 -1.426786985115436E-002
                    44 -6.404553524962940E-004
                    45  3.535358664354651E-003
                    46  0.000000000000000E+000
                    47 -2.653726690355550E-005
                    48  1.945276500033693E-004
                    49  0.000000000000000E+000
                    50  4.151859214937025E-004
                    51 -1.201487582080268E-003
                    52 -2.166609845307873E-004
                    53  0.000000000000000E+000
                    54  7.488372917806735E-006
                    55  7.686201512025198E-005
                    56  0.000000000000000E+000
                    57  0.705771595967866     
                    58  6.589324954445578E-003
                    59 -9.536959932468924E-003
                    60  0.000000000000000E+000
                    61  2.226725042591077E-005
                    62  1.479009003312530E-004
                    63  0.000000000000000E+000
                    64  1.599323777785556E-003
                    65 -1.146087029777390E-003
                    66  1.145071377899932E-004
                    67  0.000000000000000E+000
                    68 -1.803036945439638E-004
                    69 -4.845479807785210E-004
                    70  0.000000000000000E+000
                    71  0.705771595967866     
                    72  6.589324954445578E-003
                    73 -9.536959932468924E-003
                    74  0.000000000000000E+000
                    75 -2.226725042591077E-005
                    76  1.479009003312530E-004
                    77  0.000000000000000E+000
                    78 -1.599323777785556E-003
                    79 -1.146087029777390E-003
                    80  1.145071377899932E-004
                    81  0.000000000000000E+000
                    82  1.803036945439638E-004
                    83 -4.845479807785210E-004
                    84  0.000000000000000E+000
                    85  4.988954467204228E-004
                    86  3.253072736629608E-004
                    87  0.000000000000000E+000
                    88  0.000000000000000E+000
                    89  2.457872018539615E-004
                    90 -7.653202692798644E-004
                    91  8.680516306044883E-004
                    92  0.000000000000000E+000
                    93  3.564426592492282E-004
                    94 -1.872812898401799E-004
                    95 -7.653202692798644E-004
                    96  8.680516306044883E-004
                    97  0.000000000000000E+000
                    98 -3.564426592492282E-004
                    99 -1.872812898401799E-004
 Sym= __5_A1_
 Ene=  0.000000000000000E+000
 Spin= Alpha
 Occup=    2.00000000000000     
                     1  1.547865588613571E-002
                     2 -0.670684279040039     
                     3  8.141413056185888E-002
                     4  0.000000000000000E+000
                     5  0.000000000000000E+000
                     6  0.167520505375361     
                     7  0.000000000000000E+000
                     8  0.000000000000000E+000
                     9 -3.528973669469631E-002
                    10 -4.224852239987499E-003
                    11  0.000000000000000E+000
                    12  0.000000000000000E+000
                    13  1.300866663696622E-002
                    14  0.000000000000000E+000
                    15  1.942509565398431E-003
                    16 -0.134832662017250     
                    17  9.065240101134246E-002
                    18  0.000000000000000E+000
                    19  0.000000000000000E+000
                    20 -4.719415072847660E-002
                    21  0.000000000000000E+000
                    22  0.000000000000000E+000
                    23  3.778163950311341E-002
                    24 -9.042699500886328E-004
                    25  0.000000000000000E+000
                    26  0.000000000000000E+000
                    27  3.361810090604330E-003
                    28  0.000000000000000E+000
                    29  1.089191665737848E-002
                    30 -0.367572490210744     
                    31  0.157250060547596     
                    32  0.000000000000000E+000
                    33  0.181998421035273     
                    34 -3.335199450075143E-002
                    35  0.000000000000000E+000
                    36 -8.351355916339458E-002
                    37  1.956165904688649E-002
                    38  3.070211150475538E-003
                    39  0.000000000000000E+000
                    40  1.547881973471582E-002
                    41  1.771233659818987E-002
                    42  0.000000000000000E+000
                    43  1.089191665737848E-002
                    44 -0.367572490210744     
                    45  0.157250060547596     
                    46  0.000000000000000E+000
                    47 -0.181998421035273     
                    48 -3.335199450075143E-002
                    49  0.000000000000000E+000
                    50  8.351355916339458E-002
                    51  1.956165904688649E-002
                    52  3.070211150475538E-003
                    53  0.000000000000000E+000
                    54 -1.547881973471582E-002
                    55  1.771233659818987E-002
                    56  0.000000000000000E+000
                    57  5.490603174831857E-003
                    58 -0.162074733288841     
                    59  3.181548521077411E-002
                    60  0.000000000000000E+000
                    61  4.417083302157729E-002
                    62 -5.275637773614427E-002
                    63  0.000000000000000E+000
                    64  6.291558085707153E-003
                    65  1.684430995785779E-002
                    66 -6.601495278892775E-003
                    67  0.000000000000000E+000
                    68  2.769902807971318E-003
                    69  2.115854232364568E-003
                    70  0.000000000000000E+000
                    71  5.490603174831857E-003
                    72 -0.162074733288841     
                    73  3.181548521077411E-002
                    74  0.000000000000000E+000
                    75 -4.417083302157729E-002
                    76 -5.275637773614427E-002
                    77  0.000000000000000E+000
                    78 -6.291558085707153E-003
                    79  1.684430995785779E-002
                    80 -6.601495278892775E-003
                    81  0.000000000000000E+000
                    82 -2.769902807971318E-003
                    83  2.115854232364568E-003
                    84  0.000000000000000E+000
                    85 -2.132899780160101E-002
                    86  1.583778210517631E-002
                    87  0.000000000000000E+000
                    88  0.000000000000000E+000
                    89 -2.610866912114583E-003
                    90 -2.724421830667912E-002
                    91  8.398553499468582E-003
                    92  0.000000000000000E+000
                    93  1.454932620894629E-003
                    94 -2.332949378217969E-003
                    95 -2.724421830667912E-002
                    96  8.398553499468582E-003
                    97  0.000000000000000E+000