[Molden Format]
[Atoms] AU
  N     1    7     0.0000000000    0.0000000000    2.7932568500        
  C     2    6     0.0000000000    0.0000000000   -2.4729301700        
  C     3    6     0.0000000000    2.0973788500    1.4863541000        
  C     4    6     0.0000000000   -2.0973788500    1.4863541000        
  C     5    6     0.0000000000    2.2864295800   -1.1377395100        
  C     6    6     0.0000000000   -2.2864295800   -1.1377395100        
  H     7    1     0.0000000000    0.0000000000   -4.5180167900        
  H     8    1     0.0000000000    4.0942013000   -2.0828410300        
  H     9    1     0.0000000000   -4.0942013000   -2.0828410300        
[5D7F]
[GTO]
  1  0
   s     9 1.00
  0.904600D+04  0.700000D-03
  0.135700D+04  0.538900D-02
  0.309300D+03  0.274060D-01
  0.877300D+02  0.103207D+00
  0.285600D+02  0.278723D+00
  0.102100D+02  0.448540D+00
  0.383800D+01  0.278238D+00
  0.746600D+00  0.154400D-01
  0.224800D+00 -0.286400D-02
   s     9 1.00
  0.904600D+04 -0.153000D-03
  0.135700D+04 -0.120800D-02
  0.309300D+03 -0.599200D-02
  0.877300D+02 -0.245440D-01
  0.285600D+02 -0.674590D-01
  0.102100D+02 -0.158078D+00
  0.383800D+01 -0.121831D+00
  0.746600D+00  0.549003D+00
  0.224800D+00  0.578815D+00
   s     1 1.00
  0.224800D+00  0.100000D+01
   p     4 1.00
  0.135500D+02  0.399190D-01
  0.291700D+01  0.217169D+00
  0.797300D+00  0.510319D+00
  0.218500D+00  0.462214D+00
   p     1 1.00
  0.218500D+00  0.100000D+01
   d     1 1.00
  0.817000D+00  0.100000D+01
  
  2  0
   s     9 1.00
  0.666500D+04  0.692000D-03
  0.100000D+04  0.532900D-02
  0.228000D+03  0.270770D-01
  0.647100D+02  0.101718D+00
  0.210600D+02  0.274740D+00
  0.749500D+01  0.448564D+00
  0.279700D+01  0.285074D+00
  0.521500D+00  0.152040D-01
  0.159600D+00 -0.319100D-02
   s     9 1.00
  0.666500D+04 -0.146000D-03
  0.100000D+04 -0.115400D-02
  0.228000D+03 -0.572500D-02
  0.647100D+02 -0.233120D-01
  0.210600D+02 -0.639550D-01
  0.749500D+01 -0.149981D+00
  0.279700D+01 -0.127262D+00
  0.521500D+00  0.544529D+00
  0.159600D+00  0.580496D+00
   s     1 1.00
  0.159600D+00  0.100000D+01
   p     4 1.00
  0.943900D+01  0.381090D-01
  0.200200D+01  0.209480D+00
  0.545600D+00  0.508557D+00
  0.151700D+00  0.468842D+00
   p     1 1.00
  0.151700D+00  0.100000D+01
   d     1 1.00
  0.550000D+00  0.100000D+01
  
  3  0
   s     9 1.00
  0.666500D+04  0.692000D-03
  0.100000D+04  0.532900D-02
  0.228000D+03  0.270770D-01
  0.647100D+02  0.101718D+00
  0.210600D+02  0.274740D+00
  0.749500D+01  0.448564D+00
  0.279700D+01  0.285074D+00
  0.521500D+00  0.152040D-01
  0.159600D+00 -0.319100D-02
   s     9 1.00
  0.666500D+04 -0.146000D-03
  0.100000D+04 -0.115400D-02
  0.228000D+03 -0.572500D-02
  0.647100D+02 -0.233120D-01
  0.210600D+02 -0.639550D-01
  0.749500D+01 -0.149981D+00
  0.279700D+01 -0.127262D+00
  0.521500D+00  0.544529D+00
  0.159600D+00  0.580496D+00
   s     1 1.00
  0.159600D+00  0.100000D+01
   p     4 1.00
  0.943900D+01  0.381090D-01
  0.200200D+01  0.209480D+00
  0.545600D+00  0.508557D+00
  0.151700D+00  0.468842D+00
   p     1 1.00
  0.151700D+00  0.100000D+01
   d     1 1.00
  0.550000D+00  0.100000D+01
  
  4  0
   s     9 1.00
  0.666500D+04  0.692000D-03
  0.100000D+04  0.532900D-02
  0.228000D+03  0.270770D-01
  0.647100D+02  0.101718D+00
  0.210600D+02  0.274740D+00
  0.749500D+01  0.448564D+00
  0.279700D+01  0.285074D+00
  0.521500D+00  0.152040D-01
  0.159600D+00 -0.319100D-02
   s     9 1.00
  0.666500D+04 -0.146000D-03
  0.100000D+04 -0.115400D-02
  0.228000D+03 -0.572500D-02
  0.647100D+02 -0.233120D-01
  0.210600D+02 -0.639550D-01
  0.749500D+01 -0.149981D+00
  0.279700D+01 -0.127262D+00
  0.521500D+00  0.544529D+00
  0.159600D+00  0.580496D+00
   s     1 1.00
  0.159600D+00  0.100000D+01
   p     4 1.00
  0.943900D+01  0.381090D-01
  0.200200D+01  0.209480D+00
  0.545600D+00  0.508557D+00
  0.151700D+00  0.468842D+00
   p     1 1.00
  0.151700D+00  0.100000D+01
   d     1 1.00
  0.550000D+00  0.100000D+01
  
  5  0
   s     9 1.00
  0.666500D+04  0.692000D-03
  0.100000D+04  0.532900D-02
  0.228000D+03  0.270770D-01
  0.647100D+02  0.101718D+00
  0.210600D+02  0.274740D+00
  0.749500D+01  0.448564D+00
  0.279700D+01  0.285074D+00
  0.521500D+00  0.152040D-01
  0.159600D+00 -0.319100D-02
   s     9 1.00
  0.666500D+04 -0.146000D-03
  0.100000D+04 -0.115400D-02
  0.228000D+03 -0.572500D-02
  0.647100D+02 -0.233120D-01
  0.210600D+02 -0.639550D-01
  0.749500D+01 -0.149981D+00
  0.279700D+01 -0.127262D+00
  0.521500D+00  0.544529D+00
  0.159600D+00  0.580496D+00
   s     1 1.00
  0.159600D+00  0.100000D+01
   p     4 1.00
  0.943900D+01  0.381090D-01
  0.200200D+01  0.209480D+00
  0.545600D+00  0.508557D+00
  0.151700D+00  0.468842D+00
   p     1 1.00
  0.151700D+00  0.100000D+01
   d     1 1.00
  0.550000D+00  0.100000D+01
  
  6  0
   s     9 1.00
  0.666500D+04  0.692000D-03
  0.100000D+04  0.532900D-02
  0.228000D+03  0.270770D-01
  0.647100D+02  0.101718D+00
  0.210600D+02  0.274740D+00
  0.749500D+01  0.448564D+00
  0.279700D+01  0.285074D+00
  0.521500D+00  0.152040D-01
  0.159600D+00 -0.319100D-02
   s     9 1.00
  0.666500D+04 -0.146000D-03
  0.100000D+04 -0.115400D-02
  0.228000D+03 -0.572500D-02
  0.647100D+02 -0.233120D-01
  0.210600D+02 -0.639550D-01
  0.749500D+01 -0.149981D+00
  0.279700D+01 -0.127262D+00
  0.521500D+00  0.544529D+00
  0.159600D+00  0.580496D+00
   s     1 1.00
  0.159600D+00  0.100000D+01
   p     4 1.00
  0.943900D+01  0.381090D-01
  0.200200D+01  0.209480D+00
  0.545600D+00  0.508557D+00
  0.151700D+00  0.468842D+00
   p     1 1.00
  0.151700D+00  0.100000D+01
   d     1 1.00
  0.550000D+00  0.100000D+01
  
  7  0
   s     4 1.00
  0.130100D+02  0.196850D-01
  0.196200D+01  0.137977D+00
  0.444600D+00  0.478148D+00
  0.122000D+00  0.501240D+00
   s     1 1.00
  0.122000D+00  0.100000D+01
   p     1 1.00
  0.727000D+00  0.100000D+01
  
  8  0
   s     4 1.00
  0.130100D+02  0.196850D-01
  0.196200D+01  0.137977D+00
  0.444600D+00  0.478148D+00
  0.122000D+00  0.501240D+00
   s     1 1.00
  0.122000D+00  0.100000D+01
   p     1 1.00
  0.727000D+00  0.100000D+01
  
  9  0
   s     4 1.00
  0.130100D+02  0.196850D-01
  0.196200D+01  0.137977D+00
  0.444600D+00  0.478148D+00
  0.122000D+00  0.501240D+00
   s     1 1.00
  0.122000D+00  0.100000D+01
   p     1 1.00
  0.727000D+00  0.100000D+01
  
[MO]
 Sym= __1_A1_
 Ene=   1.00000000000000     
 Spin= Alpha
 Occup=    1.00000000000000     
                     1   1.00142177552500     
                     2  6.875839674006000E-003
                     3 -1.087993669589000E-002
                     4  0.000000000000000E+000
                     5  0.000000000000000E+000
                     6 -2.933174855801000E-003
                     7  0.000000000000000E+000
                     8  0.000000000000000E+000
                     9  4.081463888133000E-003
                    10 -1.853148769035725E-005
                    11  0.000000000000000E+000
                    12  0.000000000000000E+000
                    13 -3.988962382978000E-004
                    14  0.000000000000000E+000
                    15 -1.787516793338000E-004
                    16 -6.330655884128000E-004
                    17  4.254267720549000E-003
                    18  0.000000000000000E+000
                    19  0.000000000000000E+000
                    20 -8.155155936731000E-005
                    21  0.000000000000000E+000
                    22  0.000000000000000E+000
                    23  1.710696791618000E-003
                    24  1.169090980794035E-004
                    25  0.000000000000000E+000
                    26  0.000000000000000E+000
                    27 -3.027877572950000E-005
                    28  0.000000000000000E+000
                    29  7.948020921823000E-005
                    30 -8.531267195532000E-005
                    31  3.939097327554000E-003
                    32  0.000000000000000E+000
                    33 -2.936027946199000E-005
                    34 -1.926765402096000E-004
                    35  0.000000000000000E+000
                    36 -2.052748132083000E-003
                    37  6.496240704622999E-005
                    38 -3.270336534955801E-005
                    39  0.000000000000000E+000
                    40  5.264443607935000E-004
                    41  2.597270600566000E-004
                    42  0.000000000000000E+000
                    43  7.948020921823000E-005
                    44 -8.531267195532000E-005
                    45  3.939097327554000E-003
                    46  0.000000000000000E+000
                    47  2.936027946199000E-005
                    48 -1.926765402096000E-004
                    49  0.000000000000000E+000
                    50  2.052748132083000E-003
                    51  6.496240704622999E-005
                    52 -3.270336534955801E-005
                    53  0.000000000000000E+000
                    54 -5.264443607935000E-004
                    55  2.597270600566000E-004
                    56  0.000000000000000E+000
                    57  8.002680745253001E-005
                    58  2.517869842238000E-004
                    59 -2.836095058478000E-003
                    60  0.000000000000000E+000
                    61  5.541401317975000E-005
                    62 -6.796572768397000E-005
                    63  0.000000000000000E+000
                    64  2.083329179655000E-003
                    65 -3.377656622532000E-004
                    66  4.911589991653118E-005
                    67  0.000000000000000E+000
                    68  1.693744649524000E-004
                    69 -6.499600194556000E-006
                    70  0.000000000000000E+000
                    71  8.002680745253001E-005
                    72  2.517869842238000E-004
                    73 -2.836095058478000E-003
                    74  0.000000000000000E+000
                    75 -5.541401317975000E-005
                    76 -6.796572768397000E-005
                    77  0.000000000000000E+000
                    78 -2.083329179655000E-003
                    79 -3.377656622532000E-004
                    80  4.911589991653118E-005
                    81  0.000000000000000E+000
                    82 -1.693744649524000E-004
                    83 -6.499600194556000E-006
                    84  0.000000000000000E+000
                    85 -1.389448119658000E-004
                    86  4.594139104007000E-004
                    87  0.000000000000000E+000
                    88  0.000000000000000E+000
                    89 -6.677877947591000E-005
                    90 -1.288946895013000E-004
                    91 -4.203479191074000E-004
                    92  0.000000000000000E+000
                    93 -9.511519767972999E-005
                    94 -1.704965439773000E-005
                    95 -1.288946895013000E-004
                    96 -4.203479191074000E-004
                    97  0.000000000000000E+000
                    98  9.511519767972999E-005
                    99 -1.704965439773000E-005
 Sym= __2_A1_
 Ene=   2.00000000000000     
 Spin= Alpha
 Occup=    1.00000000000000     
                     1 -2.566058148594000E-004
                     2  1.094094946013000E-003
                     3 -4.323385719845000E-003
                     4  0.000000000000000E+000
                     5  0.000000000000000E+000
                     6  2.349803052063000E-004
                     7  0.000000000000000E+000
                     8  0.000000000000000E+000
                     9  1.315073277677000E-003
                    10  1.154028464464033E-004
                    11  0.000000000000000E+000
                    12  0.000000000000000E+000
                    13  6.320062244952001E-004
                    14  0.000000000000000E+000
                    15  3.922109121269000E-004
                    16 -5.260427877873000E-004
                    17  3.360564422073000E-003
                    18  0.000000000000000E+000
                    19  0.000000000000000E+000
                    20  5.746483308222000E-006
                    21  0.000000000000000E+000
                    22  0.000000000000000E+000
                    23  1.410836920609000E-003
                    24 -6.521951785194838E-005
                    25  0.000000000000000E+000
                    26  0.000000000000000E+000
                    27 -3.071715301544000E-004
                    28  0.000000000000000E+000
                    29  0.707765107927900     
                    30  4.489615491581000E-003
                    31 -2.714486188946000E-003
                    32  0.000000000000000E+000
                    33 -1.729968519635000E-003
                    34 -1.697968866900000E-004
                    35  0.000000000000000E+000
                    36 -2.724271181821000E-004
                    37  1.068756959760000E-003
                    38  2.307358381986075E-004
                    39  0.000000000000000E+000
                    40 -7.727591633220001E-004
                    41 -4.911089124092000E-004
                    42  0.000000000000000E+000
                    43  0.707765107927900     
                    44  4.489615491581000E-003
                    45 -2.714486188946000E-003
                    46  0.000000000000000E+000
                    47  1.729968519635000E-003
                    48 -1.697968866900000E-004
                    49  0.000000000000000E+000
                    50  2.724271181821000E-004
                    51  1.068756959760000E-003
                    52  2.307358381986075E-004
                    53  0.000000000000000E+000
                    54  7.727591633220001E-004
                    55 -4.911089124092000E-004
                    56  0.000000000000000E+000
                    57  1.002261787749000E-002
                    58 -3.340750205996000E-004
                    59 -1.379468456368000E-004
                    60  0.000000000000000E+000
                    61  7.403456872511001E-005
                    62 -6.343510769301001E-005
                    63  0.000000000000000E+000
                    64  1.014783269125000E-003
                    65  8.980562737817001E-004
                    66 -1.832566642009996E-004
                    67  0.000000000000000E+000
                    68 -3.320859952099000E-004
                    69  1.370210359809400E-004
                    70  0.000000000000000E+000
                    71  1.002261787749000E-002
                    72 -3.340750205996000E-004
                    73 -1.379468456368000E-004
                    74  0.000000000000000E+000
                    75 -7.403456872511001E-005
                    76 -6.343510769301001E-005
                    77  0.000000000000000E+000
                    78 -1.014783269125000E-003
                    79  8.980562737817001E-004
                    80 -1.832566642009996E-004
                    81  0.000000000000000E+000
                    82  3.320859952099000E-004
                    83  1.370210359809400E-004
                    84  0.000000000000000E+000
                    85  1.536366148518000E-004
                    86  4.161418253226000E-004
                    87  0.000000000000000E+000
                    88  0.000000000000000E+000
                    89  1.043926000603000E-005
                    90 -2.109294896105000E-004
                    91  2.516129491046000E-004
                    92  0.000000000000000E+000
                    93 -3.736773821096000E-005
                    94  6.225405547802000E-005
                    95 -2.109294896105000E-004
                    96  2.516129491046000E-004
                    97  0.000000000000000E+000
                    98  3.736773821096000E-005
                    99  6.225405547802000E-005
 Sym= __3_A1_
 Ene=   3.00000000000000     
 Spin= Alpha
 Occup=    1.00000000000000     
                     1 -2.230353377120000E-005
                     2 -1.035448498002000E-004
                     3  1.566044429567000E-004
                     4  0.000000000000000E+000
                     5  0.000000000000000E+000
                     6  3.180913779691000E-005
                     7  0.000000000000000E+000
                     8  0.000000000000000E+000
                     9  6.206422698847999E-005
                    10 -2.975839295931295E-007
                    11  0.000000000000000E+000
                    12  0.000000000000000E+000
                    13  3.233257535976000E-006
                    14  0.000000000000000E+000
                    15   1.00083058506300     
                    16  8.666954219668000E-003
                    17 -1.136127810735000E-002
                    18  0.000000000000000E+000
                    19  0.000000000000000E+000
                    20 -5.671678220751000E-005
                    21  0.000000000000000E+000
                    22  0.000000000000000E+000
                    23 -1.712978260642000E-003
                    24  4.289424150698047E-004
                    25  0.000000000000000E+000
                    26  0.000000000000000E+000
                    27 -4.938400691056000E-004
                    28  0.000000000000000E+000
                    29 -8.349393807827000E-004
                    30 -2.542120933474000E-004
                    31  3.785812242616000E-004
                    32  0.000000000000000E+000
                    33 -5.473048599465000E-005
                    34 -2.884393688252000E-005
                    35  0.000000000000000E+000
                    36  1.184779367688000E-004
                    37 -2.089919720971000E-004
                    38  6.560358591820430E-005
                    39  0.000000000000000E+000
                    40  3.112766520030000E-005
                    41 -6.269831393276000E-005
                    42  0.000000000000000E+000
                    43 -8.349393807827000E-004
                    44 -2.542120933474000E-004
                    45  3.785812242616000E-004
                    46  0.000000000000000E+000
                    47  5.473048599465000E-005
                    48 -2.884393688252000E-005
                    49  0.000000000000000E+000
                    50 -1.184779367688000E-004
                    51 -2.089919720971000E-004
                    52  6.560358591820430E-005
                    53  0.000000000000000E+000
                    54 -3.112766520030000E-005
                    55 -6.269831393276000E-005
                    56  0.000000000000000E+000
                    57  2.549338300522000E-002
                    58 -4.608494465848000E-004
                    59  2.472053483878000E-003
                    60  0.000000000000000E+000
                    61  1.002686327579000E-004
                    62  4.495307386573000E-005
                    63  0.000000000000000E+000
                    64 -1.539495462288000E-003
                    65 -3.189754226235000E-004
                    66 -9.785363740655747E-005
                    67  0.000000000000000E+000
                    68 -5.612269726406000E-005
                    69  3.220120615366000E-004
                    70  0.000000000000000E+000
                    71  2.549338300522000E-002
                    72 -4.608494465848000E-004
                    73  2.472053483878000E-003
                    74  0.000000000000000E+000
                    75 -1.002686327579000E-004
                    76  4.495307386573000E-005
                    77  0.000000000000000E+000
                    78  1.539495462288000E-003
                    79 -3.189754226235000E-004
                    80 -9.785363740655747E-005
                    81  0.000000000000000E+000
                    82  5.612269726406000E-005
                    83  3.220120615366000E-004
                    84  0.000000000000000E+000
                    85 -8.211424874642000E-004
                    86  1.216669346617000E-003
                    87  0.000000000000000E+000
                    88  0.000000000000000E+000
                    89 -5.287820503026000E-004
                    90  2.281486820612000E-004
                    91  3.247193223187000E-004
                    92  0.000000000000000E+000
                    93 -1.044995111750000E-004
                    94  6.691209827302000E-005
                    95  2.281486820612000E-004
                    96  3.247193223187000E-004
                    97  0.000000000000000E+000
                    98  1.044995111750000E-004
                    99  6.691209827302000E-005
 Sym= __4_A1_
 Ene=   4.00000000000000     
 Spin= Alpha
 Occup=    1.00000000000000     
                     1  7.373265705808000E-005
                     2  1.965038133583000E-004
                     3 -1.201629474245000E-003
                     4  0.000000000000000E+000
                     5  0.000000000000000E+000
                     6 -3.576392318578000E-005
                     7  0.000000000000000E+000
                     8  0.000000000000000E+000
                     9  4.999043774979000E-004
                    10  5.509173506350819E-005
                    11  0.000000000000000E+000
                    12  0.000000000000000E+000
                    13 -4.443986474530000E-005
                    14  0.000000000000000E+000
                    15 -3.698056876371000E-002
                    16 -1.300124941076000E-003
                    17  5.310760448004000E-003
                    18  0.000000000000000E+000
                    19  0.000000000000000E+000
                    20 -4.474645649890000E-005
                    21  0.000000000000000E+000
                    22  0.000000000000000E+000
                    23  2.273673506208000E-003
                    24 -3.763402939147780E-004
                    25  0.000000000000000E+000
                    26  0.000000000000000E+000
                    27  3.609646492024000E-004
                    28  0.000000000000000E+000
                    29 -1.049372132154000E-002
                    30 -6.220179764690000E-004
                    31  3.628184499957000E-003
                    32  0.000000000000000E+000
                    33  2.959337166325000E-005
                    34  2.182877871656000E-004
                    35  0.000000000000000E+000
                    36 -4.002438045546000E-004
                    37 -1.234066845586000E-003
                    38 -2.055583347372457E-004
                    39  0.000000000000000E+000
                    40 -2.064813162663000E-005
                    41  8.061141957254001E-005
                    42  0.000000000000000E+000
                    43 -1.049372132154000E-002
                    44 -6.220179764690000E-004
                    45  3.628184499957000E-003
                    46  0.000000000000000E+000
                    47 -2.959337166325000E-005
                    48  2.182877871656000E-004
                    49  0.000000000000000E+000
                    50  4.002438045546000E-004
                    51 -1.234066845586000E-003
                    52 -2.055583347372457E-004
                    53  0.000000000000000E+000
                    54  2.064813162663000E-005
                    55  8.061141957254001E-005
                    56  0.000000000000000E+000
                    57  0.707705896989000     
                    58  6.582006820475000E-003
                    59 -9.521964637894001E-003
                    60  0.000000000000000E+000
                    61 -2.323672805025000E-005
                    62  1.798635479816000E-004
                    63  0.000000000000000E+000
                    64  1.603080981606000E-003
                    65 -1.210931960567000E-003
                    66  1.116772539261831E-004
                    67  0.000000000000000E+000
                    68 -1.970024696835000E-004
                    69 -4.820475720592000E-004
                    70  0.000000000000000E+000
                    71  0.707705896989000     
                    72  6.582006820475000E-003
                    73 -9.521964637894001E-003
                    74  0.000000000000000E+000
                    75  2.323672805025000E-005
                    76  1.798635479816000E-004
                    77  0.000000000000000E+000
                    78 -1.603080981606000E-003
                    79 -1.210931960567000E-003
                    80  1.116772539261831E-004
                    81  0.000000000000000E+000
                    82  1.970024696835000E-004
                    83 -4.820475720592000E-004
                    84  0.000000000000000E+000
                    85  5.108368200788000E-004
                    86  3.613192147327000E-004
                    87  0.000000000000000E+000
                    88  0.000000000000000E+000
                    89  2.405507565251000E-004
                    90 -7.658582920426000E-004
                    91  8.691544006337000E-004
                    92  0.000000000000000E+000
                    93  3.494720538962000E-004
                    94 -1.823175595263000E-004
                    95 -7.658582920426000E-004
                    96  8.691544006337000E-004
                    97  0.000000000000000E+000
                    98 -3.494720538962000E-004
                    99 -1.823175595263000E-004
 Sym= __5_A1_
 Ene=   5.00000000000000     
 Spin= Alpha
 Occup=    1.00000000000000     
                     1  1.634872670835000E-002
                     2 -0.662911834495000     
                     3  8.658253446454001E-002
                     4  0.000000000000000E+000
                     5  0.000000000000000E+000
                     6  0.171115842192800     
                     7  0.000000000000000E+000
                     8  0.000000000000000E+000
                     9 -3.756453367344000E-002
                    10 -3.985575213244132E-003
                    11  0.000000000000000E+000
                    12  0.000000000000000E+000
                    13  1.287635814879400E-002
                    14  0.000000000000000E+000
                    15  2.007413564979000E-003
                    16 -0.138469783987200     
                    17  9.088405757539000E-002
                    18  0.000000000000000E+000
                    19  0.000000000000000E+000
                    20 -4.912666856806000E-002
                    21  0.000000000000000E+000
                    22  0.000000000000000E+000
                    23  3.699260033133000E-002
                    24 -8.810005670442313E-004
                    25  0.000000000000000E+000
                    26  0.000000000000000E+000
                    27  3.584030314490000E-003
                    28  0.000000000000000E+000
                    29  1.091868662091000E-002
                    30 -0.376101971574700     
                    31  0.158809352361500     
                    32  0.000000000000000E+000
                    33  0.183020122149000     
                    34 -3.659788824959000E-002
                    35  0.000000000000000E+000
                    36 -8.507605096571000E-002
                    37  2.078192086773000E-002
                    38  3.125713716139766E-003
                    39  0.000000000000000E+000
                    40  1.555592494921000E-002
                    41  1.797595195413400E-002
                    42  0.000000000000000E+000
                    43  1.091868662091000E-002
                    44 -0.376101971574700     
                    45  0.158809352361500     
                    46  0.000000000000000E+000
                    47 -0.183020122149000     
                    48 -3.659788824959000E-002
                    49  0.000000000000000E+000
                    50  8.507605096571000E-002
                    51  2.078192086773000E-002
                    52  3.125713716139766E-003
                    53  0.000000000000000E+000
                    54 -1.555592494921000E-002
                    55  1.797595195413400E-002
                    56  0.000000000000000E+000
                    57  5.629879880459000E-003
                    58 -0.161978788734500     
                    59  3.489353311817000E-002
                    60  0.000000000000000E+000
                    61  4.584921397421000E-002
                    62 -5.236639808903000E-002
                    63  0.000000000000000E+000
                    64  4.699408847968000E-003
                    65  1.804969866683000E-002
                    66 -6.403197184961886E-003
                    67  0.000000000000000E+000
                    68  2.891826672575000E-003
                    69  2.050216894100000E-003
                    70  0.000000000000000E+000
                    71  5.629879880459000E-003
                    72 -0.161978788734500     
                    73  3.489353311817000E-002
                    74  0.000000000000000E+000
                    75 -4.584921397421000E-002
                    76 -5.236639808903000E-002
                    77  0.000000000000000E+000
                    78 -4.699408847968000E-003
                    79  1.804969866683000E-002
                    80 -6.403197184961886E-003
                    81  0.000000000000000E+000
                    82 -2.891826672575000E-003
                    83  2.050216894100000E-003
                    84  0.000000000000000E+000
                    85 -2.102701924740000E-002
                    86  1.570115530725000E-002
                    87  0.000000000000000E+000
                    88  0.000000000000000E+000
                    89 -2.622388913868000E-003
                    90 -2.620610149288000E-002
                    91  8.277584428794000E-003
                    92  0.000000000000000E+000
                    93  1.452539463980000E-003
                    94 -2.306432013169000E-003
                    95 -2.620610149288000E-002
                    96  8.277584428794000E-003
                    97  0.000000000000000E+000