[Molden Format]
[Atoms] AU
  N     1    7     0.0000000000    0.0000000000    2.7932568500        
  C     2    6     0.0000000000    0.0000000000   -2.4729301700        
  C     3    6     0.0000000000    2.0973788500    1.4863541000        
  C     4    6     0.0000000000   -2.0973788500    1.4863541000        
  C     5    6     0.0000000000    2.2864295800   -1.1377395100        
  C     6    6     0.0000000000   -2.2864295800   -1.1377395100        
  H     7    1     0.0000000000    0.0000000000   -4.5180167900        
  H     8    1     0.0000000000    4.0942013000   -2.0828410300        
  H     9    1     0.0000000000   -4.0942013000   -2.0828410300        
[5D7F]
[GTO]
  1  0
   s     9 1.00
  0.904600D+04  0.700000D-03
  0.135700D+04  0.538900D-02
  0.309300D+03  0.274060D-01
  0.877300D+02  0.103207D+00
  0.285600D+02  0.278723D+00
  0.102100D+02  0.448540D+00
  0.383800D+01  0.278238D+00
  0.746600D+00  0.154400D-01
  0.224800D+00 -0.286400D-02
   s     9 1.00
  0.904600D+04 -0.153000D-03
  0.135700D+04 -0.120800D-02
  0.309300D+03 -0.599200D-02
  0.877300D+02 -0.245440D-01
  0.285600D+02 -0.674590D-01
  0.102100D+02 -0.158078D+00
  0.383800D+01 -0.121831D+00
  0.746600D+00  0.549003D+00
  0.224800D+00  0.578815D+00
   s     1 1.00
  0.224800D+00  0.100000D+01
   p     4 1.00
  0.135500D+02  0.399190D-01
  0.291700D+01  0.217169D+00
  0.797300D+00  0.510319D+00
  0.218500D+00  0.462214D+00
   p     1 1.00
  0.218500D+00  0.100000D+01
   d     1 1.00
  0.817000D+00  0.100000D+01
  
  2  0
   s     9 1.00
  0.666500D+04  0.692000D-03
  0.100000D+04  0.532900D-02
  0.228000D+03  0.270770D-01
  0.647100D+02  0.101718D+00
  0.210600D+02  0.274740D+00
  0.749500D+01  0.448564D+00
  0.279700D+01  0.285074D+00
  0.521500D+00  0.152040D-01
  0.159600D+00 -0.319100D-02
   s     9 1.00
  0.666500D+04 -0.146000D-03
  0.100000D+04 -0.115400D-02
  0.228000D+03 -0.572500D-02
  0.647100D+02 -0.233120D-01
  0.210600D+02 -0.639550D-01
  0.749500D+01 -0.149981D+00
  0.279700D+01 -0.127262D+00
  0.521500D+00  0.544529D+00
  0.159600D+00  0.580496D+00
   s     1 1.00
  0.159600D+00  0.100000D+01
   p     4 1.00
  0.943900D+01  0.381090D-01
  0.200200D+01  0.209480D+00
  0.545600D+00  0.508557D+00
  0.151700D+00  0.468842D+00
   p     1 1.00
  0.151700D+00  0.100000D+01
   d     1 1.00
  0.550000D+00  0.100000D+01
  
  3  0
   s     9 1.00
  0.666500D+04  0.692000D-03
  0.100000D+04  0.532900D-02
  0.228000D+03  0.270770D-01
  0.647100D+02  0.101718D+00
  0.210600D+02  0.274740D+00
  0.749500D+01  0.448564D+00
  0.279700D+01  0.285074D+00
  0.521500D+00  0.152040D-01
  0.159600D+00 -0.319100D-02
   s     9 1.00
  0.666500D+04 -0.146000D-03
  0.100000D+04 -0.115400D-02
  0.228000D+03 -0.572500D-02
  0.647100D+02 -0.233120D-01
  0.210600D+02 -0.639550D-01
  0.749500D+01 -0.149981D+00
  0.279700D+01 -0.127262D+00
  0.521500D+00  0.544529D+00
  0.159600D+00  0.580496D+00
   s     1 1.00
  0.159600D+00  0.100000D+01
   p     4 1.00
  0.943900D+01  0.381090D-01
  0.200200D+01  0.209480D+00
  0.545600D+00  0.508557D+00
  0.151700D+00  0.468842D+00
   p     1 1.00
  0.151700D+00  0.100000D+01
   d     1 1.00
  0.550000D+00  0.100000D+01
  
  4  0
   s     9 1.00
  0.666500D+04  0.692000D-03
  0.100000D+04  0.532900D-02
  0.228000D+03  0.270770D-01
  0.647100D+02  0.101718D+00
  0.210600D+02  0.274740D+00
  0.749500D+01  0.448564D+00
  0.279700D+01  0.285074D+00
  0.521500D+00  0.152040D-01
  0.159600D+00 -0.319100D-02
   s     9 1.00
  0.666500D+04 -0.146000D-03
  0.100000D+04 -0.115400D-02
  0.228000D+03 -0.572500D-02
  0.647100D+02 -0.233120D-01
  0.210600D+02 -0.639550D-01
  0.749500D+01 -0.149981D+00
  0.279700D+01 -0.127262D+00
  0.521500D+00  0.544529D+00
  0.159600D+00  0.580496D+00
   s     1 1.00
  0.159600D+00  0.100000D+01
   p     4 1.00
  0.943900D+01  0.381090D-01
  0.200200D+01  0.209480D+00
  0.545600D+00  0.508557D+00
  0.151700D+00  0.468842D+00
   p     1 1.00
  0.151700D+00  0.100000D+01
   d     1 1.00
  0.550000D+00  0.100000D+01
  
  5  0
   s     9 1.00
  0.666500D+04  0.692000D-03
  0.100000D+04  0.532900D-02
  0.228000D+03  0.270770D-01
  0.647100D+02  0.101718D+00
  0.210600D+02  0.274740D+00
  0.749500D+01  0.448564D+00
  0.279700D+01  0.285074D+00
  0.521500D+00  0.152040D-01
  0.159600D+00 -0.319100D-02
   s     9 1.00
  0.666500D+04 -0.146000D-03
  0.100000D+04 -0.115400D-02
  0.228000D+03 -0.572500D-02
  0.647100D+02 -0.233120D-01
  0.210600D+02 -0.639550D-01
  0.749500D+01 -0.149981D+00
  0.279700D+01 -0.127262D+00
  0.521500D+00  0.544529D+00
  0.159600D+00  0.580496D+00
   s     1 1.00
  0.159600D+00  0.100000D+01
   p     4 1.00
  0.943900D+01  0.381090D-01
  0.200200D+01  0.209480D+00
  0.545600D+00  0.508557D+00
  0.151700D+00  0.468842D+00
   p     1 1.00
  0.151700D+00  0.100000D+01
   d     1 1.00
  0.550000D+00  0.100000D+01
  
  6  0
   s     9 1.00
  0.666500D+04  0.692000D-03
  0.100000D+04  0.532900D-02
  0.228000D+03  0.270770D-01
  0.647100D+02  0.101718D+00
  0.210600D+02  0.274740D+00
  0.749500D+01  0.448564D+00
  0.279700D+01  0.285074D+00
  0.521500D+00  0.152040D-01
  0.159600D+00 -0.319100D-02
   s     9 1.00
  0.666500D+04 -0.146000D-03
  0.100000D+04 -0.115400D-02
  0.228000D+03 -0.572500D-02
  0.647100D+02 -0.233120D-01
  0.210600D+02 -0.639550D-01
  0.749500D+01 -0.149981D+00
  0.279700D+01 -0.127262D+00
  0.521500D+00  0.544529D+00
  0.159600D+00  0.580496D+00
   s     1 1.00
  0.159600D+00  0.100000D+01
   p     4 1.00
  0.943900D+01  0.381090D-01
  0.200200D+01  0.209480D+00
  0.545600D+00  0.508557D+00
  0.151700D+00  0.468842D+00
   p     1 1.00
  0.151700D+00  0.100000D+01
   d     1 1.00
  0.550000D+00  0.100000D+01
  
  7  0
   s     4 1.00
  0.130100D+02  0.196850D-01
  0.196200D+01  0.137977D+00
  0.444600D+00  0.478148D+00
  0.122000D+00  0.501240D+00
   s     1 1.00
  0.122000D+00  0.100000D+01
   p     1 1.00
  0.727000D+00  0.100000D+01
  
  8  0
   s     4 1.00
  0.130100D+02  0.196850D-01
  0.196200D+01  0.137977D+00
  0.444600D+00  0.478148D+00
  0.122000D+00  0.501240D+00
   s     1 1.00
  0.122000D+00  0.100000D+01
   p     1 1.00
  0.727000D+00  0.100000D+01
  
  9  0
   s     4 1.00
  0.130100D+02  0.196850D-01
  0.196200D+01  0.137977D+00
  0.444600D+00  0.478148D+00
  0.122000D+00  0.501240D+00
   s     1 1.00
  0.122000D+00  0.100000D+01
   p     1 1.00
  0.727000D+00  0.100000D+01
  
[MO]
 Sym= __1_A1_
 Ene=  0.000000000000000E+000
 Spin= Alpha
 Occup=    2.00000000000000     
                     1   1.00140419290423     
                     2  6.786498638553333E-003
                     3 -1.076076027972071E-002
                     4  0.000000000000000E+000
                     5  0.000000000000000E+000
                     6 -2.924516780269830E-003
                     7  0.000000000000000E+000
                     8  0.000000000000000E+000
                     9  4.110767269504658E-003
                    10 -4.295633071172184E-006
                    11  0.000000000000000E+000
                    12  0.000000000000000E+000
                    13 -3.802936917935676E-004
                    14  0.000000000000000E+000
                    15 -1.784245228247536E-004
                    16 -6.382011205715547E-004
                    17  4.149414500441071E-003
                    18  0.000000000000000E+000
                    19  0.000000000000000E+000
                    20 -8.701374407167919E-005
                    21  0.000000000000000E+000
                    22  0.000000000000000E+000
                    23  1.711117704769448E-003
                    24  1.060100083478643E-004
                    25  0.000000000000000E+000
                    26  0.000000000000000E+000
                    27 -3.613601564357278E-005
                    28  0.000000000000000E+000
                    29  7.280975094731637E-005
                    30 -1.064863994272583E-004
                    31  3.918949926351150E-003
                    32  0.000000000000000E+000
                    33 -7.342437248611347E-005
                    34 -1.919262856619434E-004
                    35  0.000000000000000E+000
                    36 -2.027432050362012E-003
                    37  3.251243988409065E-005
                    38 -2.213141913918227E-005
                    39  0.000000000000000E+000
                    40  5.132611456571722E-004
                    41  2.454588953916040E-004
                    42  0.000000000000000E+000
                    43  7.280975094731637E-005
                    44 -1.064863994272583E-004
                    45  3.918949926351150E-003
                    46  0.000000000000000E+000
                    47  7.342437248611347E-005
                    48 -1.919262856619434E-004
                    49  0.000000000000000E+000
                    50  2.027432050362012E-003
                    51  3.251243988409065E-005
                    52 -2.213141913918227E-005
                    53  0.000000000000000E+000
                    54 -5.132611456571722E-004
                    55  2.454588953916040E-004
                    56  0.000000000000000E+000
                    57  7.573004389317514E-005
                    58  2.377441335113593E-004
                    59 -2.801355434065653E-003
                    60  0.000000000000000E+000
                    61  5.817528016032208E-005
                    62 -7.349307437050598E-005
                    63  0.000000000000000E+000
                    64  2.030477819987034E-003
                    65 -3.325532171075084E-004
                    66  3.860518116551376E-005
                    67  0.000000000000000E+000
                    68  1.604086697520338E-004
                    69 -8.921417784053236E-006
                    70  0.000000000000000E+000
                    71  7.573004389317514E-005
                    72  2.377441335113593E-004
                    73 -2.801355434065653E-003
                    74  0.000000000000000E+000
                    75 -5.817528016032208E-005
                    76 -7.349307437050598E-005
                    77  0.000000000000000E+000
                    78 -2.030477819987034E-003
                    79 -3.325532171075084E-004
                    80  3.860518116551376E-005
                    81  0.000000000000000E+000
                    82 -1.604086697520338E-004
                    83 -8.921417784053236E-006
                    84  0.000000000000000E+000
                    85 -1.160767884301746E-004
                    86  4.551762030247517E-004
                    87  0.000000000000000E+000
                    88  0.000000000000000E+000
                    89 -6.317404354712282E-005
                    90 -1.274376271199821E-004
                    91 -4.012533395768969E-004
                    92  0.000000000000000E+000
                    93 -9.278155750310362E-005
                    94 -1.750457740283344E-005
                    95 -1.274376271199821E-004
                    96 -4.012533395768969E-004
                    97  0.000000000000000E+000
                    98  9.278155750310362E-005
                    99 -1.750457740283344E-005
 Sym= __2_A1_
 Ene=  0.000000000000000E+000
 Spin= Alpha
 Occup=    2.00000000000000     
                     1 -2.118769161466283E-004
                     2  1.131043795452895E-003
                     3 -4.025358697847512E-003
                     4  0.000000000000000E+000
                     5  0.000000000000000E+000
                     6  2.474956163477058E-004
                     7  0.000000000000000E+000
                     8  0.000000000000000E+000
                     9  1.243025100394608E-003
                    10  1.153570640338093E-004
                    11  0.000000000000000E+000
                    12  0.000000000000000E+000
                    13  6.366938546024852E-004
                    14  0.000000000000000E+000
                    15  4.822743073739767E-004
                    16 -5.797076683588288E-004
                    17  3.149777645809133E-003
                    18  0.000000000000000E+000
                    19  0.000000000000000E+000
                    20 -3.523099740743441E-005
                    21  0.000000000000000E+000
                    22  0.000000000000000E+000
                    23  1.297517068053002E-003
                    24 -4.938123045303066E-005
                    25  0.000000000000000E+000
                    26  0.000000000000000E+000
                    27 -2.942480185684330E-004
                    28  0.000000000000000E+000
                    29  0.707714095344921     
                    30  4.563417778617219E-003
                    31 -3.069434936015677E-003
                    32  0.000000000000000E+000
                    33 -1.743916957287237E-003
                    34 -2.456411636927201E-004
                    35  0.000000000000000E+000
                    36 -2.205329263859720E-004
                    37  1.121963669980787E-003
                    38  1.924135966297464E-004
                    39  0.000000000000000E+000
                    40 -7.294554601692193E-004
                    41 -4.471675727803394E-004
                    42  0.000000000000000E+000
                    43  0.707714095344921     
                    44  4.563417778617219E-003
                    45 -3.069434936015677E-003
                    46  0.000000000000000E+000
                    47  1.743916957287237E-003
                    48 -2.456411636927201E-004
                    49  0.000000000000000E+000
                    50  2.205329263859720E-004
                    51  1.121963669980787E-003
                    52  1.924135966297464E-004
                    53  0.000000000000000E+000
                    54  7.294554601692193E-004
                    55 -4.471675727803394E-004
                    56  0.000000000000000E+000
                    57  1.394133143747562E-002
                    58 -2.748456817599783E-004
                    59  3.993192927762627E-005
                    60  0.000000000000000E+000
                    61  8.197658300613132E-005
                    62 -3.494482772519663E-005
                    63  0.000000000000000E+000
                    64  8.897065743156582E-004
                    65  9.745966205270579E-004
                    66 -1.879980064780870E-004
                    67  0.000000000000000E+000
                    68 -3.104550636658271E-004
                    69  1.201776455887432E-004
                    70  0.000000000000000E+000
                    71  1.394133143747562E-002
                    72 -2.748456817599783E-004
                    73  3.993192927762627E-005
                    74  0.000000000000000E+000
                    75 -8.197658300613132E-005
                    76 -3.494482772519663E-005
                    77  0.000000000000000E+000
                    78 -8.897065743156582E-004
                    79  9.745966205270579E-004
                    80 -1.879980064780870E-004
                    81  0.000000000000000E+000
                    82  3.104550636658271E-004
                    83  1.201776455887432E-004
                    84  0.000000000000000E+000
                    85  1.434749229537662E-004
                    86  3.973080851170968E-004
                    87  0.000000000000000E+000
                    88  0.000000000000000E+000
                    89  8.594911711128052E-006
                    90 -2.001605060209303E-004
                    91  2.968404038978696E-004
                    92  0.000000000000000E+000
                    93 -3.753729086246262E-005
                    94  5.359627250347780E-005
                    95 -2.001605060209303E-004
                    96  2.968404038978696E-004
                    97  0.000000000000000E+000
                    98  3.753729086246262E-005
                    99  5.359627250347780E-005
 Sym= __3_A1_
 Ene=  0.000000000000000E+000
 Spin= Alpha
 Occup=    2.00000000000000     
                     1 -2.183301556374468E-005
                     2 -1.027178665563465E-004
                     3  1.235369839467692E-004
                     4  0.000000000000000E+000
                     5  0.000000000000000E+000
                     6  3.664355348408893E-005
                     7  0.000000000000000E+000
                     8  0.000000000000000E+000
                     9  7.944491759423965E-005
                    10 -3.611846472192627E-006
                    11  0.000000000000000E+000
                    12  0.000000000000000E+000
                    13 -3.000981290879314E-006
                    14  0.000000000000000E+000
                    15  0.998118286064954     
                    16  8.900118181098269E-003
                    17 -1.136532698046439E-002
                    18  0.000000000000000E+000
                    19  0.000000000000000E+000
                    20 -3.356300246704725E-006
                    21  0.000000000000000E+000
                    22  0.000000000000000E+000
                    23 -1.707991113082729E-003
                    24  4.094257976506440E-004
                    25  0.000000000000000E+000
                    26  0.000000000000000E+000
                    27 -4.058309309142550E-004
                    28  0.000000000000000E+000
                    29 -1.717159407752885E-003
                    30 -3.263898334607372E-004
                    31  5.568198021799781E-004
                    32  0.000000000000000E+000
                    33 -4.870406353555225E-005
                    34 -1.122781240154954E-006
                    35  0.000000000000000E+000
                    36  9.736725784869192E-005
                    37 -2.750711801439389E-004
                    38  4.943815848319635E-005
                    39  0.000000000000000E+000
                    40  3.393609699539559E-005
                    41 -6.547569030243722E-005
                    42  0.000000000000000E+000
                    43 -1.717159407752885E-003
                    44 -3.263898334607372E-004
                    45  5.568198021799781E-004
                    46  0.000000000000000E+000
                    47  4.870406353555225E-005
                    48 -1.122781240154954E-006
                    49  0.000000000000000E+000
                    50 -9.736725784869192E-005
                    51 -2.750711801439389E-004
                    52  4.943815848319635E-005
                    53  0.000000000000000E+000
                    54 -3.393609699539559E-005
                    55 -6.547569030243722E-005
                    56  0.000000000000000E+000
                    57  5.806676877430955E-002
                    58 -1.256100341976590E-004
                    59  2.050207360104997E-003
                    60  0.000000000000000E+000
                    61  1.031840429032003E-004
                    62  5.287071981104021E-005
                    63  0.000000000000000E+000
                    64 -1.481939999757671E-003
                    65 -3.813127875681339E-004
                    66 -6.902784367124764E-005
                    67  0.000000000000000E+000
                    68 -8.360088560973140E-005
                    69  3.107125306199326E-004
                    70  0.000000000000000E+000
                    71  5.806676877430955E-002
                    72 -1.256100341976590E-004
                    73  2.050207360104997E-003
                    74  0.000000000000000E+000
                    75 -1.031840429032003E-004
                    76  5.287071981104021E-005
                    77  0.000000000000000E+000
                    78  1.481939999757671E-003
                    79 -3.813127875681339E-004
                    80 -6.902784367124764E-005
                    81  0.000000000000000E+000
                    82  8.360088560973140E-005
                    83  3.107125306199326E-004
                    84  0.000000000000000E+000
                    85 -8.213761174370725E-004
                    86  1.232802223626421E-003
                    87  0.000000000000000E+000
                    88  0.000000000000000E+000
                    89 -5.209245265911203E-004
                    90  1.828095529352540E-004
                    91  3.703758974932064E-004
                    92  0.000000000000000E+000
                    93 -7.953877942423598E-005
                    94  6.692057639374663E-005
                    95  1.828095529352540E-004
                    96  3.703758974932064E-004
                    97  0.000000000000000E+000
                    98  7.953877942423598E-005
                    99  6.692057639374663E-005
 Sym= __4_A1_
 Ene=  0.000000000000000E+000
 Spin= Alpha
 Occup=    2.00000000000000     
                     1  7.115822004243996E-005
                     2  1.873549122125854E-004
                     3 -1.145441477285648E-003
                     4  0.000000000000000E+000
                     5  0.000000000000000E+000
                     6 -2.026581840813385E-005
                     7  0.000000000000000E+000
                     8  0.000000000000000E+000
                     9  4.771558960016000E-004
                    10  4.618602374814031E-005
                    11  0.000000000000000E+000
                    12  0.000000000000000E+000
                    13 -5.322937943015708E-005
                    14  0.000000000000000E+000
                    15 -8.301724841997093E-002
                    16 -1.701414270604011E-003
                    17  5.741493340456667E-003
                    18  0.000000000000000E+000
                    19  0.000000000000000E+000
                    20 -5.786042906801936E-005
                    21  0.000000000000000E+000
                    22  0.000000000000000E+000
                    23  2.335901359204771E-003
                    24 -3.579094390397821E-004
                    25  0.000000000000000E+000
                    26  0.000000000000000E+000
                    27  3.866343275943798E-004
                    28  0.000000000000000E+000
                    29 -1.431933160260954E-002
                    30 -6.399422882787482E-004
                    31  3.539066500431319E-003
                    32  0.000000000000000E+000
                    33  2.644305688811147E-005
                    34  1.941247234188675E-004
                    35  0.000000000000000E+000
                    36 -4.153110372890553E-004
                    37 -1.202469837629783E-003
                    38 -2.161781523585397E-004
                    39  0.000000000000000E+000
                    40 -6.518446854383387E-006
                    41  7.769942339435792E-005
                    42  0.000000000000000E+000
                    43 -1.431933160260954E-002
                    44 -6.399422882787482E-004
                    45  3.539066500431319E-003
                    46  0.000000000000000E+000
                    47 -2.644305688811147E-005
                    48  1.941247234188675E-004
                    49  0.000000000000000E+000
                    50  4.153110372890553E-004
                    51 -1.202469837629783E-003
                    52 -2.161781523585397E-004
                    53  0.000000000000000E+000
                    54  6.518446854383387E-006
                    55  7.769942339435792E-005
                    56  0.000000000000000E+000
                    57  0.705717602948900     
                    58  6.601810613560934E-003
                    59 -9.556136989864543E-003
                    60  0.000000000000000E+000
                    61  1.943354260979269E-005
                    62  1.489749864302658E-004
                    63  0.000000000000000E+000
                    64  1.604340355977852E-003
                    65 -1.147505680096454E-003
                    66  1.127135384654543E-004
                    67  0.000000000000000E+000
                    68 -1.779530961516717E-004
                    69 -4.877219433475952E-004
                    70  0.000000000000000E+000
                    71  0.705717602948900     
                    72  6.601810613560934E-003
                    73 -9.556136989864543E-003
                    74  0.000000000000000E+000
                    75 -1.943354260979269E-005
                    76  1.489749864302658E-004
                    77  0.000000000000000E+000
                    78 -1.604340355977852E-003
                    79 -1.147505680096454E-003
                    80  1.127135384654543E-004
                    81  0.000000000000000E+000
                    82  1.779530961516717E-004
                    83 -4.877219433475952E-004
                    84  0.000000000000000E+000
                    85  5.060663516505905E-004
                    86  3.231700894672302E-004
                    87  0.000000000000000E+000
                    88  0.000000000000000E+000
                    89  2.484347864889818E-004
                    90 -7.662512243531328E-004
                    91  8.673645233137940E-004
                    92  0.000000000000000E+000
                    93  3.573147878395364E-004
                    94 -1.881116452724951E-004
                    95 -7.662512243531328E-004
                    96  8.673645233137940E-004
                    97  0.000000000000000E+000
                    98 -3.573147878395364E-004
                    99 -1.881116452724951E-004
 Sym= __5_A1_
 Ene=  0.000000000000000E+000
 Spin= Alpha
 Occup=    2.00000000000000     
                     1  1.551769682431488E-002
                     2 -0.670465617304266     
                     3  8.170275989766715E-002
                     4  0.000000000000000E+000
                     5  0.000000000000000E+000
                     6  0.167917053729607     
                     7  0.000000000000000E+000
                     8  0.000000000000000E+000
                     9 -3.552079672237964E-002
                    10 -4.264987089205603E-003
                    11  0.000000000000000E+000
                    12  0.000000000000000E+000
                    13  1.298886234488257E-002
                    14  0.000000000000000E+000
                    15  1.957380823878633E-003
                    16 -0.134920901084829     
                    17  9.090954763283619E-002
                    18  0.000000000000000E+000
                    19  0.000000000000000E+000
                    20 -4.729492579584867E-002
                    21  0.000000000000000E+000
                    22  0.000000000000000E+000
                    23  3.786315623710867E-002
                    24 -9.108872036857217E-004
                    25  0.000000000000000E+000
                    26  0.000000000000000E+000
                    27  3.357438401861140E-003
                    28  0.000000000000000E+000
                    29  1.093588576813237E-002
                    30 -0.367713255264409     
                    31  0.157284335459044     
                    32  0.000000000000000E+000
                    33  0.182166601964204     
                    34 -3.360200879152012E-002
                    35  0.000000000000000E+000
                    36 -8.361108186844686E-002
                    37  1.975044397398487E-002
                    38  3.057555125550989E-003
                    39  0.000000000000000E+000
                    40  1.550272564868737E-002
                    41  1.772467686096277E-002
                    42  0.000000000000000E+000
                    43  1.093588576813237E-002
                    44 -0.367713255264409     
                    45  0.157284335459044     
                    46  0.000000000000000E+000
                    47 -0.182166601964204     
                    48 -3.360200879152012E-002
                    49  0.000000000000000E+000
                    50  8.361108186844686E-002
                    51  1.975044397398487E-002
                    52  3.057555125550989E-003
                    53  0.000000000000000E+000
                    54 -1.550272564868737E-002
                    55  1.772467686096277E-002
                    56  0.000000000000000E+000
                    57  5.500319504532624E-003
                    58 -0.162040469147236     
                    59  3.188605416513777E-002
                    60  0.000000000000000E+000
                    61  4.427345381911760E-002
                    62 -5.271596134320014E-002
                    63  0.000000000000000E+000
                    64  6.283477600329907E-003
                    65  1.692464874488838E-002
                    66 -6.593457091903653E-003
                    67  0.000000000000000E+000
                    68  2.783809972601227E-003
                    69  2.120027256067284E-003
                    70  0.000000000000000E+000
                    71  5.500319504532624E-003
                    72 -0.162040469147236     
                    73  3.188605416513777E-002
                    74  0.000000000000000E+000
                    75 -4.427345381911760E-002
                    76 -5.271596134320014E-002
                    77  0.000000000000000E+000
                    78 -6.283477600329907E-003
                    79  1.692464874488838E-002
                    80 -6.593457091903653E-003
                    81  0.000000000000000E+000
                    82 -2.783809972601227E-003
                    83  2.120027256067284E-003
                    84  0.000000000000000E+000
                    85 -2.133656344467981E-002
                    86  1.585827572393081E-002
                    87  0.000000000000000E+000
                    88  0.000000000000000E+000
                    89 -2.613494566458410E-003
                    90 -2.719871669538717E-002
                    91  8.382311515646000E-003
                    92  0.000000000000000E+000
                    93  1.456840028957326E-003
                    94 -2.326768547235708E-003
                    95 -2.719871669538717E-002
                    96  8.382311515646000E-003
                    97  0.000000000000000E+000