[Molden Format]
[Atoms] AU
  N     1    7     0.0000000000    0.0000000000    2.7646383000        
  C     2    6     0.0000000000    0.0000000000   -2.4477348800        
  C     3    6     0.0000000000    2.0754681300    1.4665395500        
  C     4    6     0.0000000000   -2.0754681300    1.4665395500        
  C     5    6     0.0000000000    2.2806112100   -1.1339665200        
  C     6    6     0.0000000000   -2.2806112100   -1.1339665200        
  H     7    1     0.0000000000    0.0000000000   -4.4940690900        
  H     8    1     0.0000000000    4.0863643000   -2.0814264400        
  H     9    1     0.0000000000   -4.0863643000   -2.0814264400        
[5D7F]
[GTO]
  1  0
   s     9 1.00
  0.904600D+04  0.700000D-03
  0.135700D+04  0.538900D-02
  0.309300D+03  0.274060D-01
  0.877300D+02  0.103207D+00
  0.285600D+02  0.278723D+00
  0.102100D+02  0.448540D+00
  0.383800D+01  0.278238D+00
  0.746600D+00  0.154400D-01
  0.224800D+00 -0.286400D-02
   s     9 1.00
  0.904600D+04 -0.153000D-03
  0.135700D+04 -0.120800D-02
  0.309300D+03 -0.599200D-02
  0.877300D+02 -0.245440D-01
  0.285600D+02 -0.674590D-01
  0.102100D+02 -0.158078D+00
  0.383800D+01 -0.121831D+00
  0.746600D+00  0.549003D+00
  0.224800D+00  0.578815D+00
   s     1 1.00
  0.224800D+00  0.100000D+01
   p     4 1.00
  0.135500D+02  0.399190D-01
  0.291700D+01  0.217169D+00
  0.797300D+00  0.510319D+00
  0.218500D+00  0.462214D+00
   p     1 1.00
  0.218500D+00  0.100000D+01
   d     1 1.00
  0.817000D+00  0.100000D+01
  
  2  0
   s     9 1.00
  0.666500D+04  0.692000D-03
  0.100000D+04  0.532900D-02
  0.228000D+03  0.270770D-01
  0.647100D+02  0.101718D+00
  0.210600D+02  0.274740D+00
  0.749500D+01  0.448564D+00
  0.279700D+01  0.285074D+00
  0.521500D+00  0.152040D-01
  0.159600D+00 -0.319100D-02
   s     9 1.00
  0.666500D+04 -0.146000D-03
  0.100000D+04 -0.115400D-02
  0.228000D+03 -0.572500D-02
  0.647100D+02 -0.233120D-01
  0.210600D+02 -0.639550D-01
  0.749500D+01 -0.149981D+00
  0.279700D+01 -0.127262D+00
  0.521500D+00  0.544529D+00
  0.159600D+00  0.580496D+00
   s     1 1.00
  0.159600D+00  0.100000D+01
   p     4 1.00
  0.943900D+01  0.381090D-01
  0.200200D+01  0.209480D+00
  0.545600D+00  0.508557D+00
  0.151700D+00  0.468842D+00
   p     1 1.00
  0.151700D+00  0.100000D+01
   d     1 1.00
  0.550000D+00  0.100000D+01
  
  3  0
   s     9 1.00
  0.666500D+04  0.692000D-03
  0.100000D+04  0.532900D-02
  0.228000D+03  0.270770D-01
  0.647100D+02  0.101718D+00
  0.210600D+02  0.274740D+00
  0.749500D+01  0.448564D+00
  0.279700D+01  0.285074D+00
  0.521500D+00  0.152040D-01
  0.159600D+00 -0.319100D-02
   s     9 1.00
  0.666500D+04 -0.146000D-03
  0.100000D+04 -0.115400D-02
  0.228000D+03 -0.572500D-02
  0.647100D+02 -0.233120D-01
  0.210600D+02 -0.639550D-01
  0.749500D+01 -0.149981D+00
  0.279700D+01 -0.127262D+00
  0.521500D+00  0.544529D+00
  0.159600D+00  0.580496D+00
   s     1 1.00
  0.159600D+00  0.100000D+01
   p     4 1.00
  0.943900D+01  0.381090D-01
  0.200200D+01  0.209480D+00
  0.545600D+00  0.508557D+00
  0.151700D+00  0.468842D+00
   p     1 1.00
  0.151700D+00  0.100000D+01
   d     1 1.00
  0.550000D+00  0.100000D+01
  
  4  0
   s     9 1.00
  0.666500D+04  0.692000D-03
  0.100000D+04  0.532900D-02
  0.228000D+03  0.270770D-01
  0.647100D+02  0.101718D+00
  0.210600D+02  0.274740D+00
  0.749500D+01  0.448564D+00
  0.279700D+01  0.285074D+00
  0.521500D+00  0.152040D-01
  0.159600D+00 -0.319100D-02
   s     9 1.00
  0.666500D+04 -0.146000D-03
  0.100000D+04 -0.115400D-02
  0.228000D+03 -0.572500D-02
  0.647100D+02 -0.233120D-01
  0.210600D+02 -0.639550D-01
  0.749500D+01 -0.149981D+00
  0.279700D+01 -0.127262D+00
  0.521500D+00  0.544529D+00
  0.159600D+00  0.580496D+00
   s     1 1.00
  0.159600D+00  0.100000D+01
   p     4 1.00
  0.943900D+01  0.381090D-01
  0.200200D+01  0.209480D+00
  0.545600D+00  0.508557D+00
  0.151700D+00  0.468842D+00
   p     1 1.00
  0.151700D+00  0.100000D+01
   d     1 1.00
  0.550000D+00  0.100000D+01
  
  5  0
   s     9 1.00
  0.666500D+04  0.692000D-03
  0.100000D+04  0.532900D-02
  0.228000D+03  0.270770D-01
  0.647100D+02  0.101718D+00
  0.210600D+02  0.274740D+00
  0.749500D+01  0.448564D+00
  0.279700D+01  0.285074D+00
  0.521500D+00  0.152040D-01
  0.159600D+00 -0.319100D-02
   s     9 1.00
  0.666500D+04 -0.146000D-03
  0.100000D+04 -0.115400D-02
  0.228000D+03 -0.572500D-02
  0.647100D+02 -0.233120D-01
  0.210600D+02 -0.639550D-01
  0.749500D+01 -0.149981D+00
  0.279700D+01 -0.127262D+00
  0.521500D+00  0.544529D+00
  0.159600D+00  0.580496D+00
   s     1 1.00
  0.159600D+00  0.100000D+01
   p     4 1.00
  0.943900D+01  0.381090D-01
  0.200200D+01  0.209480D+00
  0.545600D+00  0.508557D+00
  0.151700D+00  0.468842D+00
   p     1 1.00
  0.151700D+00  0.100000D+01
   d     1 1.00
  0.550000D+00  0.100000D+01
  
  6  0
   s     9 1.00
  0.666500D+04  0.692000D-03
  0.100000D+04  0.532900D-02
  0.228000D+03  0.270770D-01
  0.647100D+02  0.101718D+00
  0.210600D+02  0.274740D+00
  0.749500D+01  0.448564D+00
  0.279700D+01  0.285074D+00
  0.521500D+00  0.152040D-01
  0.159600D+00 -0.319100D-02
   s     9 1.00
  0.666500D+04 -0.146000D-03
  0.100000D+04 -0.115400D-02
  0.228000D+03 -0.572500D-02
  0.647100D+02 -0.233120D-01
  0.210600D+02 -0.639550D-01
  0.749500D+01 -0.149981D+00
  0.279700D+01 -0.127262D+00
  0.521500D+00  0.544529D+00
  0.159600D+00  0.580496D+00
   s     1 1.00
  0.159600D+00  0.100000D+01
   p     4 1.00
  0.943900D+01  0.381090D-01
  0.200200D+01  0.209480D+00
  0.545600D+00  0.508557D+00
  0.151700D+00  0.468842D+00
   p     1 1.00
  0.151700D+00  0.100000D+01
   d     1 1.00
  0.550000D+00  0.100000D+01
  
  7  0
   s     4 1.00
  0.130100D+02  0.196850D-01
  0.196200D+01  0.137977D+00
  0.444600D+00  0.478148D+00
  0.122000D+00  0.501240D+00
   s     1 1.00
  0.122000D+00  0.100000D+01
   p     1 1.00
  0.727000D+00  0.100000D+01
  
  8  0
   s     4 1.00
  0.130100D+02  0.196850D-01
  0.196200D+01  0.137977D+00
  0.444600D+00  0.478148D+00
  0.122000D+00  0.501240D+00
   s     1 1.00
  0.122000D+00  0.100000D+01
   p     1 1.00
  0.727000D+00  0.100000D+01
  
  9  0
   s     4 1.00
  0.130100D+02  0.196850D-01
  0.196200D+01  0.137977D+00
  0.444600D+00  0.478148D+00
  0.122000D+00  0.501240D+00
   s     1 1.00
  0.122000D+00  0.100000D+01
   p     1 1.00
  0.727000D+00  0.100000D+01
  
[MO]
 Sym= __1_A1_
 Ene=   1.00000000000000     
 Spin= Alpha
 Occup=    1.00000000000000     
                     1   1.00145357795514     
                     2  7.050949400290143E-003
                     3 -1.105150505564809E-002
                     4  0.000000000000000E+000
                     5  0.000000000000000E+000
                     6 -2.962077802738916E-003
                     7  0.000000000000000E+000
                     8  0.000000000000000E+000
                     9  4.139075850039925E-003
                    10 -1.304968551627895E-005
                    11  0.000000000000000E+000
                    12  0.000000000000000E+000
                    13 -4.099410620913224E-004
                    14  0.000000000000000E+000
                    15 -1.805779325952394E-004
                    16 -6.448247449842938E-004
                    17  4.271692159461977E-003
                    18  0.000000000000000E+000
                    19  0.000000000000000E+000
                    20 -8.779741410024745E-005
                    21  0.000000000000000E+000
                    22  0.000000000000000E+000
                    23  1.718522462112271E-003
                    24  1.188957189011489E-004
                    25  0.000000000000000E+000
                    26  0.000000000000000E+000
                    27 -2.935131343810444E-005
                    28  0.000000000000000E+000
                    29  7.894167700205041E-005
                    30 -1.015826210895365E-004
                    31  3.961283275218305E-003
                    32  0.000000000000000E+000
                    33 -4.159356190420706E-005
                    34 -2.153515113287813E-004
                    35  0.000000000000000E+000
                    36 -2.066089152119159E-003
                    37  6.110063491683071E-005
                    38 -2.960576920966351E-005
                    39  0.000000000000000E+000
                    40  5.350799779923220E-004
                    41  2.635716681855246E-004
                    42  0.000000000000000E+000
                    43  7.894167700205041E-005
                    44 -1.015826210895365E-004
                    45  3.961283275218305E-003
                    46  0.000000000000000E+000
                    47  4.159356190420706E-005
                    48 -2.153515113287813E-004
                    49  0.000000000000000E+000
                    50  2.066089152119159E-003
                    51  6.110063491683071E-005
                    52 -2.960576920966351E-005
                    53  0.000000000000000E+000
                    54 -5.350799779923220E-004
                    55  2.635716681855246E-004
                    56  0.000000000000000E+000
                    57  7.900224001317460E-005
                    58  2.519757115778143E-004
                    59 -2.848514933309011E-003
                    60  0.000000000000000E+000
                    61  5.857589801846956E-005
                    62 -6.346927465997777E-005
                    63  0.000000000000000E+000
                    64  2.089818475231683E-003
                    65 -3.397269557920324E-004
                    66  4.984624967999476E-005
                    67  0.000000000000000E+000
                    68  1.722200554442204E-004
                    69 -7.211169995372602E-006
                    70  0.000000000000000E+000
                    71  7.900224001317460E-005
                    72  2.519757115778143E-004
                    73 -2.848514933309011E-003
                    74  0.000000000000000E+000
                    75 -5.857589801846956E-005
                    76 -6.346927465997777E-005
                    77  0.000000000000000E+000
                    78 -2.089818475231683E-003
                    79 -3.397269557920324E-004
                    80  4.984624967999476E-005
                    81  0.000000000000000E+000
                    82 -1.722200554442204E-004
                    83 -7.211169995372602E-006
                    84  0.000000000000000E+000
                    85 -1.361791623586627E-004
                    86  4.620889870779728E-004
                    87  0.000000000000000E+000
                    88  0.000000000000000E+000
                    89 -6.728121968185929E-005
                    90 -1.262891517988859E-004
                    91 -4.229300246032694E-004
                    92  0.000000000000000E+000
                    93 -9.610828436197811E-005
                    94 -1.719641895975936E-005
                    95 -1.262891517988859E-004
                    96 -4.229300246032694E-004
                    97  0.000000000000000E+000
                    98  9.610828436197811E-005
                    99 -1.719641895975936E-005
 Sym= __2_A1_
 Ene=   2.00000000000000     
 Spin= Alpha
 Occup=    1.00000000000000     
                     1 -2.445272425409276E-004
                     2  1.141568253135029E-003
                     3 -4.411030181045476E-003
                     4  0.000000000000000E+000
                     5  0.000000000000000E+000
                     6  2.681892299619418E-004
                     7  0.000000000000000E+000
                     8  0.000000000000000E+000
                     9  1.349877938763904E-003
                    10  1.250013062182845E-004
                    11  0.000000000000000E+000
                    12  0.000000000000000E+000
                    13  6.488453725825258E-004
                    14  0.000000000000000E+000
                    15  6.686769531282916E-004
                    16 -5.811825013613815E-004
                    17  3.522957883648769E-003
                    18  0.000000000000000E+000
                    19  0.000000000000000E+000
                    20 -1.518661962672563E-005
                    21  0.000000000000000E+000
                    22  0.000000000000000E+000
                    23  1.490083144463392E-003
                    24 -6.687453843662028E-005
                    25  0.000000000000000E+000
                    26  0.000000000000000E+000
                    27 -3.157092000505576E-004
                    28  0.000000000000000E+000
                    29  0.707724387137520     
                    30  4.790716286793738E-003
                    31 -2.945576259790103E-003
                    32  0.000000000000000E+000
                    33 -1.816950399071390E-003
                    34 -2.440934335176668E-004
                    35  0.000000000000000E+000
                    36 -2.794665423299294E-004
                    37  1.097044756274085E-003
                    38  2.195072679635891E-004
                    39  0.000000000000000E+000
                    40 -7.853802622831738E-004
                    41 -4.663512829568900E-004
                    42  0.000000000000000E+000
                    43  0.707724387137520     
                    44  4.790716286793738E-003
                    45 -2.945576259790103E-003
                    46  0.000000000000000E+000
                    47  1.816950399071390E-003
                    48 -2.440934335176668E-004
                    49  0.000000000000000E+000
                    50  2.794665423299294E-004
                    51  1.097044756274085E-003
                    52  2.195072679635891E-004
                    53  0.000000000000000E+000
                    54  7.853802622831738E-004
                    55 -4.663512829568900E-004
                    56  0.000000000000000E+000
                    57  1.516986473192840E-002
                    58 -2.754422681243480E-004
                    59 -2.419898105538866E-004
                    60  0.000000000000000E+000
                    61  8.642842785627483E-005
                    62 -5.088034959255209E-005
                    63  0.000000000000000E+000
                    64  1.065971184768352E-003
                    65  8.985137579621179E-004
                    66 -1.981969355873996E-004
                    67  0.000000000000000E+000
                    68 -3.411837983607146E-004
                    69  1.281683292611452E-004
                    70  0.000000000000000E+000
                    71  1.516986473192840E-002
                    72 -2.754422681243480E-004
                    73 -2.419898105538866E-004
                    74  0.000000000000000E+000
                    75 -8.642842785627483E-005
                    76 -5.088034959255209E-005
                    77  0.000000000000000E+000
                    78 -1.065971184768352E-003
                    79  8.985137579621179E-004
                    80 -1.981969355873996E-004
                    81  0.000000000000000E+000
                    82  3.411837983607146E-004
                    83  1.281683292611452E-004
                    84  0.000000000000000E+000
                    85  1.723543943724332E-004
                    86  4.368888408339368E-004
                    87  0.000000000000000E+000
                    88  0.000000000000000E+000
                    89  1.080344880954778E-005
                    90 -2.259880203705511E-004
                    91  2.581184943524332E-004
                    92  0.000000000000000E+000
                    93 -3.467507180717060E-005
                    94  5.843477674416114E-005
                    95 -2.259880203705511E-004
                    96  2.581184943524332E-004
                    97  0.000000000000000E+000
                    98  3.467507180717060E-005
                    99  5.843477674416114E-005
 Sym= __3_A1_
 Ene=   3.00000000000000     
 Spin= Alpha
 Occup=    1.00000000000000     
                     1 -2.074925102524665E-005
                     2 -1.004083705786967E-004
                     3  9.959074784645353E-005
                     4  0.000000000000000E+000
                     5  0.000000000000000E+000
                     6  3.539541367065330E-005
                     7  0.000000000000000E+000
                     8  0.000000000000000E+000
                     9  8.496406408165117E-005
                    10  2.077079594885984E-006
                    11  0.000000000000000E+000
                    12  0.000000000000000E+000
                    13  1.100430962505047E-006
                    14  0.000000000000000E+000
                    15  0.998194856566981     
                    16  9.032159746837251E-003
                    17 -1.151709101228670E-002
                    18  0.000000000000000E+000
                    19  0.000000000000000E+000
                    20  1.879288106133992E-005
                    21  0.000000000000000E+000
                    22  0.000000000000000E+000
                    23 -1.740270628721276E-003
                    24  3.847182607629651E-004
                    25  0.000000000000000E+000
                    26  0.000000000000000E+000
                    27 -4.402893468800344E-004
                    28  0.000000000000000E+000
                    29 -1.939886928311359E-003
                    30 -3.123252176767662E-004
                    31  5.670717175404472E-004
                    32  0.000000000000000E+000
                    33 -5.496897321672571E-005
                    34 -1.585509391812092E-005
                    35  0.000000000000000E+000
                    36  9.211401072573839E-005
                    37 -2.721122820764300E-004
                    38  5.616411671858889E-005
                    39  0.000000000000000E+000
                    40  2.939867643674189E-005
                    41 -6.424827444451548E-005
                    42  0.000000000000000E+000
                    43 -1.939886928311359E-003
                    44 -3.123252176767662E-004
                    45  5.670717175404472E-004
                    46  0.000000000000000E+000
                    47  5.496897321672571E-005
                    48 -1.585509391812092E-005
                    49  0.000000000000000E+000
                    50 -9.211401072573839E-005
                    51 -2.721122820764300E-004
                    52  5.616411671858889E-005
                    53  0.000000000000000E+000
                    54 -2.939867643674189E-005
                    55 -6.424827444451548E-005
                    56  0.000000000000000E+000
                    57  5.753921801669840E-002
                    58 -1.580247064418319E-004
                    59  2.085509268808188E-003
                    60  0.000000000000000E+000
                    61  1.158660205322879E-004
                    62  5.770130042508209E-005
                    63  0.000000000000000E+000
                    64 -1.500417524162520E-003
                    65 -3.682385166622535E-004
                    66 -8.546087212788715E-005
                    67  0.000000000000000E+000
                    68 -8.316261468066946E-005
                    69  3.073806955455146E-004
                    70  0.000000000000000E+000
                    71  5.753921801669840E-002
                    72 -1.580247064418319E-004
                    73  2.085509268808188E-003
                    74  0.000000000000000E+000
                    75 -1.158660205322879E-004
                    76  5.770130042508209E-005
                    77  0.000000000000000E+000
                    78  1.500417524162520E-003
                    79 -3.682385166622535E-004
                    80 -8.546087212788715E-005
                    81  0.000000000000000E+000
                    82  8.316261468066946E-005
                    83  3.073806955455146E-004
                    84  0.000000000000000E+000
                    85 -8.019879307678653E-004
                    86  1.215525791594030E-003
                    87  0.000000000000000E+000
                    88  0.000000000000000E+000
                    89 -5.194626275226920E-004
                    90  1.861538235890742E-004
                    91  3.759570967670513E-004
                    92  0.000000000000000E+000
                    93 -8.356950189283935E-005
                    94  6.136392368648742E-005
                    95  1.861538235890742E-004
                    96  3.759570967670513E-004
                    97  0.000000000000000E+000
                    98  8.356950189283935E-005
                    99  6.136392368648742E-005
 Sym= __4_A1_
 Ene=   4.00000000000000     
 Spin= Alpha
 Occup=    1.00000000000000     
                     1  7.535042784525045E-005
                     2  1.968374354964652E-004
                     3 -1.175348859213400E-003
                     4  0.000000000000000E+000
                     5  0.000000000000000E+000
                     6 -3.035170982641839E-005
                     7  0.000000000000000E+000
                     8  0.000000000000000E+000
                     9  4.916113059386726E-004
                    10  5.410228876851080E-005
                    11  0.000000000000000E+000
                    12  0.000000000000000E+000
                    13 -4.905887432422144E-005
                    14  0.000000000000000E+000
                    15 -8.231980446161839E-002
                    16 -1.732366283188206E-003
                    17  5.859709054058613E-003
                    18  0.000000000000000E+000
                    19  0.000000000000000E+000
                    20 -5.795692409677896E-005
                    21  0.000000000000000E+000
                    22  0.000000000000000E+000
                    23  2.358672232502880E-003
                    24 -3.875264430035174E-004
                    25  0.000000000000000E+000
                    26  0.000000000000000E+000
                    27  3.861298615817332E-004
                    28  0.000000000000000E+000
                    29 -1.555665944885502E-002
                    30 -6.668602409502820E-004
                    31  3.662902070376651E-003
                    32  0.000000000000000E+000
                    33  3.358974402384527E-005
                    34  2.103178769783240E-004
                    35  0.000000000000000E+000
                    36 -4.067058362545765E-004
                    37 -1.242373225781567E-003
                    38 -2.094401121891175E-004
                    39  0.000000000000000E+000
                    40 -1.612908554527085E-005
                    41  8.443617528027961E-005
                    42  0.000000000000000E+000
                    43 -1.555665944885502E-002
                    44 -6.668602409502820E-004
                    45  3.662902070376651E-003
                    46  0.000000000000000E+000
                    47 -3.358974402384527E-005
                    48  2.103178769783240E-004
                    49  0.000000000000000E+000
                    50  4.067058362545765E-004
                    51 -1.242373225781567E-003
                    52 -2.094401121891175E-004
                    53  0.000000000000000E+000
                    54  1.612908554527085E-005
                    55  8.443617528027961E-005
                    56  0.000000000000000E+000
                    57  0.705758715480608     
                    58  6.752132045447994E-003
                    59 -9.781154568087031E-003
                    60  0.000000000000000E+000
                    61  2.563899305326793E-006
                    62  1.570471188151711E-004
                    63  0.000000000000000E+000
                    64  1.664032664745096E-003
                    65 -1.200308419119893E-003
                    66  1.160913359407116E-004
                    67  0.000000000000000E+000
                    68 -1.963056279880823E-004
                    69 -5.054238889440832E-004
                    70  0.000000000000000E+000
                    71  0.705758715480608     
                    72  6.752132045447994E-003
                    73 -9.781154568087031E-003
                    74  0.000000000000000E+000
                    75 -2.563899305326793E-006
                    76  1.570471188151711E-004
                    77  0.000000000000000E+000
                    78 -1.664032664745096E-003
                    79 -1.200308419119893E-003
                    80  1.160913359407116E-004
                    81  0.000000000000000E+000
                    82  1.963056279880823E-004
                    83 -5.054238889440832E-004
                    84  0.000000000000000E+000
                    85  5.419016348119589E-004
                    86  3.086983454338810E-004
                    87  0.000000000000000E+000
                    88  0.000000000000000E+000
                    89  2.631664955488316E-004
                    90 -8.045475599010839E-004
                    91  8.691042883255035E-004
                    92  0.000000000000000E+000
                    93  3.699733046686746E-004
                    94 -1.934935135528498E-004
                    95 -8.045475599010839E-004
                    96  8.691042883255035E-004
                    97  0.000000000000000E+000
                    98 -3.699733046686746E-004
                    99 -1.934935135528498E-004
 Sym= __5_A1_
 Ene=   5.00000000000000     
 Spin= Alpha
 Occup=    1.00000000000000     
                     1  1.613455558759255E-002
                     2 -0.668390006973638     
                     3  8.535471750661065E-002
                     4  0.000000000000000E+000
                     5  0.000000000000000E+000
                     6  0.170916000514853     
                     7  0.000000000000000E+000
                     8  0.000000000000000E+000
                     9 -3.785101416472657E-002
                    10 -4.338258401305864E-003
                    11  0.000000000000000E+000
                    12  0.000000000000000E+000
                    13  1.300668395399417E-002
                    14  0.000000000000000E+000
                    15  2.114940240149210E-003
                    16 -0.135489135860017     
                    17  9.169445124106100E-002
                    18  0.000000000000000E+000
                    19  0.000000000000000E+000
                    20 -4.821684175975505E-002
                    21  0.000000000000000E+000
                    22  0.000000000000000E+000
                    23  3.777933699196197E-002
                    24 -9.706121425887034E-004
                    25  0.000000000000000E+000
                    26  0.000000000000000E+000
                    27  3.466221094846296E-003
                    28  0.000000000000000E+000
                    29  1.151919546472546E-002
                    30 -0.369652230635417     
                    31  0.158734240272339     
                    32  0.000000000000000E+000
                    33  0.184285798863067     
                    34 -3.436099696044823E-002
                    35  0.000000000000000E+000
                    36 -8.483803838816920E-002
                    37  2.050167462099669E-002
                    38  3.254846297542748E-003
                    39  0.000000000000000E+000
                    40  1.544905886074409E-002
                    41  1.798044947247955E-002
                    42  0.000000000000000E+000
                    43  1.151919546472546E-002
                    44 -0.369652230635417     
                    45  0.158734240272339     
                    46  0.000000000000000E+000
                    47 -0.184285798863067     
                    48 -3.436099696044823E-002
                    49  0.000000000000000E+000
                    50  8.483803838816920E-002
                    51  2.050167462099669E-002
                    52  3.254846297542748E-003
                    53  0.000000000000000E+000
                    54 -1.544905886074409E-002
                    55  1.798044947247955E-002
                    56  0.000000000000000E+000
                    57  5.597580809263374E-003
                    58 -0.161755232378430     
                    59  3.309135788955852E-002
                    60  0.000000000000000E+000
                    61  4.543894937201094E-002
                    62 -5.319299288522161E-002
                    63  0.000000000000000E+000
                    64  5.706979747453786E-003
                    65  1.749125648863100E-002
                    66 -6.481122763397707E-003
                    67  0.000000000000000E+000
                    68  3.044450305860293E-003
                    69  2.177438062509114E-003
                    70  0.000000000000000E+000
                    71  5.597580809263374E-003
                    72 -0.161755232378430     
                    73  3.309135788955852E-002
                    74  0.000000000000000E+000
                    75 -4.543894937201094E-002
                    76 -5.319299288522161E-002
                    77  0.000000000000000E+000
                    78 -5.706979747453786E-003
                    79  1.749125648863100E-002
                    80 -6.481122763397707E-003
                    81  0.000000000000000E+000
                    82 -3.044450305860293E-003
                    83  2.177438062509114E-003
                    84  0.000000000000000E+000
                    85 -2.089530261936788E-002
                    86  1.553040528726798E-002
                    87  0.000000000000000E+000
                    88  0.000000000000000E+000
                    89 -2.569204906490672E-003
                    90 -2.640131470031534E-002
                    91  7.991301663911319E-003
                    92  0.000000000000000E+000
                    93  1.389915355799111E-003
                    94 -2.305181468964644E-003
                    95 -2.640131470031534E-002
                    96  7.991301663911319E-003
                    97  0.000000000000000E+000