[Molden Format]
[Atoms] AU
  N     1    7     0.0000000000    0.0000000000    2.7934341900        
  C     2    6     0.0000000000    0.0000000000   -2.4728308400        
  C     3    6     0.0000000000    2.0974869700    1.4866877900        
  C     4    6     0.0000000000   -2.0974869700    1.4866877900        
  C     5    6     0.0000000000    2.2864751100   -1.1376224700        
  C     6    6     0.0000000000   -2.2864751100   -1.1376224700        
  H     7    1     0.0000000000    0.0000000000   -4.5178637900        
  H     8    1     0.0000000000    4.0935600900   -2.0839917000        
  H     9    1     0.0000000000   -4.0935600900   -2.0839917000        
[5D7F]
[GTO]
  1  0
   s     9 1.00
  0.904600D+04  0.700000D-03
  0.135700D+04  0.538900D-02
  0.309300D+03  0.274060D-01
  0.877300D+02  0.103207D+00
  0.285600D+02  0.278723D+00
  0.102100D+02  0.448540D+00
  0.383800D+01  0.278238D+00
  0.746600D+00  0.154400D-01
  0.224800D+00 -0.286400D-02
   s     9 1.00
  0.904600D+04 -0.153000D-03
  0.135700D+04 -0.120800D-02
  0.309300D+03 -0.599200D-02
  0.877300D+02 -0.245440D-01
  0.285600D+02 -0.674590D-01
  0.102100D+02 -0.158078D+00
  0.383800D+01 -0.121831D+00
  0.746600D+00  0.549003D+00
  0.224800D+00  0.578815D+00
   s     1 1.00
  0.224800D+00  0.100000D+01
   p     4 1.00
  0.135500D+02  0.399190D-01
  0.291700D+01  0.217169D+00
  0.797300D+00  0.510319D+00
  0.218500D+00  0.462214D+00
   p     1 1.00
  0.218500D+00  0.100000D+01
   d     1 1.00
  0.817000D+00  0.100000D+01
  
  2  0
   s     9 1.00
  0.666500D+04  0.692000D-03
  0.100000D+04  0.532900D-02
  0.228000D+03  0.270770D-01
  0.647100D+02  0.101718D+00
  0.210600D+02  0.274740D+00
  0.749500D+01  0.448564D+00
  0.279700D+01  0.285074D+00
  0.521500D+00  0.152040D-01
  0.159600D+00 -0.319100D-02
   s     9 1.00
  0.666500D+04 -0.146000D-03
  0.100000D+04 -0.115400D-02
  0.228000D+03 -0.572500D-02
  0.647100D+02 -0.233120D-01
  0.210600D+02 -0.639550D-01
  0.749500D+01 -0.149981D+00
  0.279700D+01 -0.127262D+00
  0.521500D+00  0.544529D+00
  0.159600D+00  0.580496D+00
   s     1 1.00
  0.159600D+00  0.100000D+01
   p     4 1.00
  0.943900D+01  0.381090D-01
  0.200200D+01  0.209480D+00
  0.545600D+00  0.508557D+00
  0.151700D+00  0.468842D+00
   p     1 1.00
  0.151700D+00  0.100000D+01
   d     1 1.00
  0.550000D+00  0.100000D+01
  
  3  0
   s     9 1.00
  0.666500D+04  0.692000D-03
  0.100000D+04  0.532900D-02
  0.228000D+03  0.270770D-01
  0.647100D+02  0.101718D+00
  0.210600D+02  0.274740D+00
  0.749500D+01  0.448564D+00
  0.279700D+01  0.285074D+00
  0.521500D+00  0.152040D-01
  0.159600D+00 -0.319100D-02
   s     9 1.00
  0.666500D+04 -0.146000D-03
  0.100000D+04 -0.115400D-02
  0.228000D+03 -0.572500D-02
  0.647100D+02 -0.233120D-01
  0.210600D+02 -0.639550D-01
  0.749500D+01 -0.149981D+00
  0.279700D+01 -0.127262D+00
  0.521500D+00  0.544529D+00
  0.159600D+00  0.580496D+00
   s     1 1.00
  0.159600D+00  0.100000D+01
   p     4 1.00
  0.943900D+01  0.381090D-01
  0.200200D+01  0.209480D+00
  0.545600D+00  0.508557D+00
  0.151700D+00  0.468842D+00
   p     1 1.00
  0.151700D+00  0.100000D+01
   d     1 1.00
  0.550000D+00  0.100000D+01
  
  4  0
   s     9 1.00
  0.666500D+04  0.692000D-03
  0.100000D+04  0.532900D-02
  0.228000D+03  0.270770D-01
  0.647100D+02  0.101718D+00
  0.210600D+02  0.274740D+00
  0.749500D+01  0.448564D+00
  0.279700D+01  0.285074D+00
  0.521500D+00  0.152040D-01
  0.159600D+00 -0.319100D-02
   s     9 1.00
  0.666500D+04 -0.146000D-03
  0.100000D+04 -0.115400D-02
  0.228000D+03 -0.572500D-02
  0.647100D+02 -0.233120D-01
  0.210600D+02 -0.639550D-01
  0.749500D+01 -0.149981D+00
  0.279700D+01 -0.127262D+00
  0.521500D+00  0.544529D+00
  0.159600D+00  0.580496D+00
   s     1 1.00
  0.159600D+00  0.100000D+01
   p     4 1.00
  0.943900D+01  0.381090D-01
  0.200200D+01  0.209480D+00
  0.545600D+00  0.508557D+00
  0.151700D+00  0.468842D+00
   p     1 1.00
  0.151700D+00  0.100000D+01
   d     1 1.00
  0.550000D+00  0.100000D+01
  
  5  0
   s     9 1.00
  0.666500D+04  0.692000D-03
  0.100000D+04  0.532900D-02
  0.228000D+03  0.270770D-01
  0.647100D+02  0.101718D+00
  0.210600D+02  0.274740D+00
  0.749500D+01  0.448564D+00
  0.279700D+01  0.285074D+00
  0.521500D+00  0.152040D-01
  0.159600D+00 -0.319100D-02
   s     9 1.00
  0.666500D+04 -0.146000D-03
  0.100000D+04 -0.115400D-02
  0.228000D+03 -0.572500D-02
  0.647100D+02 -0.233120D-01
  0.210600D+02 -0.639550D-01
  0.749500D+01 -0.149981D+00
  0.279700D+01 -0.127262D+00
  0.521500D+00  0.544529D+00
  0.159600D+00  0.580496D+00
   s     1 1.00
  0.159600D+00  0.100000D+01
   p     4 1.00
  0.943900D+01  0.381090D-01
  0.200200D+01  0.209480D+00
  0.545600D+00  0.508557D+00
  0.151700D+00  0.468842D+00
   p     1 1.00
  0.151700D+00  0.100000D+01
   d     1 1.00
  0.550000D+00  0.100000D+01
  
  6  0
   s     9 1.00
  0.666500D+04  0.692000D-03
  0.100000D+04  0.532900D-02
  0.228000D+03  0.270770D-01
  0.647100D+02  0.101718D+00
  0.210600D+02  0.274740D+00
  0.749500D+01  0.448564D+00
  0.279700D+01  0.285074D+00
  0.521500D+00  0.152040D-01
  0.159600D+00 -0.319100D-02
   s     9 1.00
  0.666500D+04 -0.146000D-03
  0.100000D+04 -0.115400D-02
  0.228000D+03 -0.572500D-02
  0.647100D+02 -0.233120D-01
  0.210600D+02 -0.639550D-01
  0.749500D+01 -0.149981D+00
  0.279700D+01 -0.127262D+00
  0.521500D+00  0.544529D+00
  0.159600D+00  0.580496D+00
   s     1 1.00
  0.159600D+00  0.100000D+01
   p     4 1.00
  0.943900D+01  0.381090D-01
  0.200200D+01  0.209480D+00
  0.545600D+00  0.508557D+00
  0.151700D+00  0.468842D+00
   p     1 1.00
  0.151700D+00  0.100000D+01
   d     1 1.00
  0.550000D+00  0.100000D+01
  
  7  0
   s     4 1.00
  0.130100D+02  0.196850D-01
  0.196200D+01  0.137977D+00
  0.444600D+00  0.478148D+00
  0.122000D+00  0.501240D+00
   s     1 1.00
  0.122000D+00  0.100000D+01
   p     1 1.00
  0.727000D+00  0.100000D+01
  
  8  0
   s     4 1.00
  0.130100D+02  0.196850D-01
  0.196200D+01  0.137977D+00
  0.444600D+00  0.478148D+00
  0.122000D+00  0.501240D+00
   s     1 1.00
  0.122000D+00  0.100000D+01
   p     1 1.00
  0.727000D+00  0.100000D+01
  
  9  0
   s     4 1.00
  0.130100D+02  0.196850D-01
  0.196200D+01  0.137977D+00
  0.444600D+00  0.478148D+00
  0.122000D+00  0.501240D+00
   s     1 1.00
  0.122000D+00  0.100000D+01
   p     1 1.00
  0.727000D+00  0.100000D+01
  
[MO]
 Sym= __1_A1_
 Ene=   1.00000000000000     
 Spin= Alpha
 Occup=    1.00000000000000     
                     1   1.00140411966954     
                     2  6.786026707360965E-003
                     3 -1.076031468160343E-002
                     4  0.000000000000000E+000
                     5  0.000000000000000E+000
                     6 -2.924235813703959E-003
                     7  0.000000000000000E+000
                     8  0.000000000000000E+000
                     9  4.110647664199771E-003
                    10 -4.337554411590818E-006
                    11  0.000000000000000E+000
                    12  0.000000000000000E+000
                    13 -3.802828824131796E-004
                    14  0.000000000000000E+000
                    15 -1.783536174045906E-004
                    16 -6.379558858261180E-004
                    17  4.147154895990010E-003
                    18  0.000000000000000E+000
                    19  0.000000000000000E+000
                    20 -8.705415727057257E-005
                    21  0.000000000000000E+000
                    22  0.000000000000000E+000
                    23  1.710930570220982E-003
                    24  1.059159680497818E-004
                    25  0.000000000000000E+000
                    26  0.000000000000000E+000
                    27 -3.615728154060442E-005
                    28  0.000000000000000E+000
                    29  7.272406278293832E-005
                    30 -1.067926623019035E-004
                    31  3.920001313635258E-003
                    32  0.000000000000000E+000
                    33 -7.337326251097000E-005
                    34 -1.920475214615777E-004
                    35  0.000000000000000E+000
                    36 -2.027236879490016E-003
                    37  3.183116906212225E-005
                    38 -2.203024955741870E-005
                    39  0.000000000000000E+000
                    40  5.131470182130849E-004
                    41  2.454028850875746E-004
                    42  0.000000000000000E+000
                    43  7.272406278293832E-005
                    44 -1.067926623019035E-004
                    45  3.920001313635258E-003
                    46  0.000000000000000E+000
                    47  7.337326251097000E-005
                    48 -1.920475214615777E-004
                    49  0.000000000000000E+000
                    50  2.027236879490016E-003
                    51  3.183116906212225E-005
                    52 -2.203024955741870E-005
                    53  0.000000000000000E+000
                    54 -5.131470182130849E-004
                    55  2.454028850875746E-004
                    56  0.000000000000000E+000
                    57  7.571241418988417E-005
                    58  2.376648906231402E-004
                    59 -2.801375167406240E-003
                    60  0.000000000000000E+000
                    61  5.818341006842196E-005
                    62 -7.349279415000058E-005
                    63  0.000000000000000E+000
                    64  2.029579930629663E-003
                    65 -3.335284032432868E-004
                    66  3.844931524808749E-005
                    67  0.000000000000000E+000
                    68  1.603298103963600E-004
                    69 -8.960008792931844E-006
                    70  0.000000000000000E+000
                    71  7.571241418988417E-005
                    72  2.376648906231402E-004
                    73 -2.801375167406240E-003
                    74  0.000000000000000E+000
                    75 -5.818341006842196E-005
                    76 -7.349279415000058E-005
                    77  0.000000000000000E+000
                    78 -2.029579930629663E-003
                    79 -3.335284032432868E-004
                    80  3.844931524808749E-005
                    81  0.000000000000000E+000
                    82 -1.603298103963600E-004
                    83 -8.960008792931844E-006
                    84  0.000000000000000E+000
                    85 -1.158657782012255E-004
                    86  4.552076705470480E-004
                    87  0.000000000000000E+000
                    88  0.000000000000000E+000
                    89 -6.312865514358052E-005
                    90 -1.272205410969862E-004
                    91 -4.013371964169507E-004
                    92  0.000000000000000E+000
                    93 -9.277773521282113E-005
                    94 -1.751201148644189E-005
                    95 -1.272205410969862E-004
                    96 -4.013371964169507E-004
                    97  0.000000000000000E+000
                    98  9.277773521282113E-005
                    99 -1.751201148644189E-005
 Sym= __2_A1_
 Ene=   2.00000000000000     
 Spin= Alpha
 Occup=    1.00000000000000     
                     1 -2.119408054524771E-004
                     2  1.130869933865514E-003
                     3 -4.023709707318889E-003
                     4  0.000000000000000E+000
                     5  0.000000000000000E+000
                     6  2.474235691386441E-004
                     7  0.000000000000000E+000
                     8  0.000000000000000E+000
                     9  1.242515636283008E-003
                    10  1.152980239479573E-004
                    11  0.000000000000000E+000
                    12  0.000000000000000E+000
                    13  6.365240805976054E-004
                    14  0.000000000000000E+000
                    15  4.797711720712536E-004
                    16 -5.801637328363253E-004
                    17  3.149622436586434E-003
                    18  0.000000000000000E+000
                    19  0.000000000000000E+000
                    20 -3.544820560832957E-005
                    21  0.000000000000000E+000
                    22  0.000000000000000E+000
                    23  1.297237736374556E-003
                    24 -4.938317748796073E-005
                    25  0.000000000000000E+000
                    26  0.000000000000000E+000
                    27 -2.942166785744358E-004
                    28  0.000000000000000E+000
                    29  0.707714076593708     
                    30  4.562462359910931E-003
                    31 -3.069664835133103E-003
                    32  0.000000000000000E+000
                    33 -1.743901602041927E-003
                    34 -2.458231156127007E-004
                    35  0.000000000000000E+000
                    36 -2.202242870000471E-004
                    37  1.122034241458963E-003
                    38  1.921472369341563E-004
                    39  0.000000000000000E+000
                    40 -7.291020220975013E-004
                    41 -4.471411109772872E-004
                    42  0.000000000000000E+000
                    43  0.707714076593708     
                    44  4.562462359910931E-003
                    45 -3.069664835133103E-003
                    46  0.000000000000000E+000
                    47  1.743901602041927E-003
                    48 -2.458231156127007E-004
                    49  0.000000000000000E+000
                    50  2.202242870000471E-004
                    51  1.122034241458963E-003
                    52  1.921472369341563E-004
                    53  0.000000000000000E+000
                    54  7.291020220975013E-004
                    55 -4.471411109772872E-004
                    56  0.000000000000000E+000
                    57  1.393560054297919E-002
                    58 -2.745259036106573E-004
                    59  4.059702256801428E-005
                    60  0.000000000000000E+000
                    61  8.221985912131599E-005
                    62 -3.483887051892684E-005
                    63  0.000000000000000E+000
                    64  8.895454638956206E-004
                    65  9.748417205121527E-004
                    66 -1.881583165818258E-004
                    67  0.000000000000000E+000
                    68 -3.102518214233859E-004
                    69  1.199842559526510E-004
                    70  0.000000000000000E+000
                    71  1.393560054297919E-002
                    72 -2.745259036106573E-004
                    73  4.059702256801428E-005
                    74  0.000000000000000E+000
                    75 -8.221985912131599E-005
                    76 -3.483887051892684E-005
                    77  0.000000000000000E+000
                    78 -8.895454638956206E-004
                    79  9.748417205121527E-004
                    80 -1.881583165818258E-004
                    81  0.000000000000000E+000
                    82  3.102518214233859E-004
                    83  1.199842559526510E-004
                    84  0.000000000000000E+000
                    85  1.434060199323096E-004
                    86  3.972469126421292E-004
                    87  0.000000000000000E+000
                    88  0.000000000000000E+000
                    89  8.605127261596931E-006
                    90 -2.004752351048626E-004
                    91  2.967736050823342E-004
                    92  0.000000000000000E+000
                    93 -3.749904687162546E-005
                    94  5.315710874373700E-005
                    95 -2.004752351048626E-004
                    96  2.967736050823342E-004
                    97  0.000000000000000E+000
                    98  3.749904687162546E-005
                    99  5.315710874373700E-005
 Sym= __3_A1_
 Ene=   3.00000000000000     
 Spin= Alpha
 Occup=    1.00000000000000     
                     1 -2.177758289875394E-005
                     2 -1.025339866784130E-004
                     3  1.227428901697773E-004
                     4  0.000000000000000E+000
                     5  0.000000000000000E+000
                     6  3.663108694524295E-005
                     7  0.000000000000000E+000
                     8  0.000000000000000E+000
                     9  7.965037291000919E-005
                    10 -3.595848437746747E-006
                    11  0.000000000000000E+000
                    12  0.000000000000000E+000
                    13 -3.055050802450792E-006
                    14  0.000000000000000E+000
                    15  0.998075964348722     
                    16  8.898813018474483E-003
                    17 -1.135911014286880E-002
                    18  0.000000000000000E+000
                    19  0.000000000000000E+000
                    20 -4.232384123079773E-006
                    21  0.000000000000000E+000
                    22  0.000000000000000E+000
                    23 -1.704824154432540E-003
                    24  4.093596113974802E-004
                    25  0.000000000000000E+000
                    26  0.000000000000000E+000
                    27 -4.056885516542298E-004
                    28  0.000000000000000E+000
                    29 -1.722201799455904E-003
                    30 -3.266365016110180E-004
                    31  5.584369816647263E-004
                    32  0.000000000000000E+000
                    33 -4.868468628983934E-005
                    34 -1.056408510873414E-006
                    35  0.000000000000000E+000
                    36  9.693692081422329E-005
                    37 -2.755438007061233E-004
                    38  4.933161539716680E-005
                    39  0.000000000000000E+000
                    40  3.400079775400793E-005
                    41 -6.541537293311617E-005
                    42  0.000000000000000E+000
                    43 -1.722201799455904E-003
                    44 -3.266365016110180E-004
                    45  5.584369816647263E-004
                    46  0.000000000000000E+000
                    47  4.868468628983934E-005
                    48 -1.056408510873414E-006
                    49  0.000000000000000E+000
                    50 -9.693692081422329E-005
                    51 -2.755438007061233E-004
                    52  4.933161539716680E-005
                    53  0.000000000000000E+000
                    54 -3.400079775400793E-005
                    55 -6.541537293311617E-005
                    56  0.000000000000000E+000
                    57  5.842434486649097E-002
                    58 -1.221940264086634E-004
                    59  2.044207593677515E-003
                    60  0.000000000000000E+000
                    61  1.030332924191140E-004
                    62  5.304547549453703E-005
                    63  0.000000000000000E+000
                    64 -1.479708613418854E-003
                    65 -3.815703501596973E-004
                    66 -6.907091882959574E-005
                    67  0.000000000000000E+000
                    68 -8.361006331715239E-005
                    69  3.104139218533602E-004
                    70  0.000000000000000E+000
                    71  5.842434486649097E-002
                    72 -1.221940264086634E-004
                    73  2.044207593677515E-003
                    74  0.000000000000000E+000
                    75 -1.030332924191140E-004
                    76  5.304547549453703E-005
                    77  0.000000000000000E+000
                    78  1.479708613418854E-003
                    79 -3.815703501596973E-004
                    80 -6.907091882959574E-005
                    81  0.000000000000000E+000
                    82  8.361006331715239E-005
                    83  3.104139218533602E-004
                    84  0.000000000000000E+000
                    85 -8.214074676484838E-004
                    86  1.233575053667687E-003
                    87  0.000000000000000E+000
                    88  0.000000000000000E+000
                    89 -5.209586397947345E-004
                    90  1.822168838449866E-004
                    91  3.705590425013913E-004
                    92  0.000000000000000E+000
                    93 -7.945006515661411E-005
                    94  6.679175475554428E-005
                    95  1.822168838449866E-004
                    96  3.705590425013913E-004
                    97  0.000000000000000E+000
                    98  7.945006515661411E-005
                    99  6.679175475554428E-005
 Sym= __4_A1_
 Ene=   4.00000000000000     
 Spin= Alpha
 Occup=    1.00000000000000     
                     1  7.110216396746731E-005
                     2  1.871639377336359E-004
                     3 -1.145594386269483E-003
                     4  0.000000000000000E+000
                     5  0.000000000000000E+000
                     6 -2.016328371131675E-005
                     7  0.000000000000000E+000
                     8  0.000000000000000E+000
                     9  4.770906034237293E-004
                    10  4.618387481932892E-005
                    11  0.000000000000000E+000
                    12  0.000000000000000E+000
                    13 -5.321863330711372E-005
                    14  0.000000000000000E+000
                    15 -8.352262894580265E-002
                    16 -1.705115313410476E-003
                    17  5.747705828470786E-003
                    18  0.000000000000000E+000
                    19  0.000000000000000E+000
                    20 -5.742108086484170E-005
                    21  0.000000000000000E+000
                    22  0.000000000000000E+000
                    23  2.337519057312918E-003
                    24 -3.576880401707340E-004
                    25  0.000000000000000E+000
                    26  0.000000000000000E+000
                    27  3.868108154051752E-004
                    28  0.000000000000000E+000
                    29 -1.431271288782214E-002
                    30 -6.399930269517727E-004
                    31  3.538593207806299E-003
                    32  0.000000000000000E+000
                    33  2.645931722718981E-005
                    34  1.944027346050255E-004
                    35  0.000000000000000E+000
                    36 -4.154019331053373E-004
                    37 -1.202298833768307E-003
                    38 -2.164504156520118E-004
                    39  0.000000000000000E+000
                    40 -6.704734749447838E-006
                    41  7.760733982585760E-005
                    42  0.000000000000000E+000
                    43 -1.431271288782214E-002
                    44 -6.399930269517727E-004
                    45  3.538593207806299E-003
                    46  0.000000000000000E+000
                    47 -2.645931722718981E-005
                    48  1.944027346050255E-004
                    49  0.000000000000000E+000
                    50  4.154019331053373E-004
                    51 -1.202298833768307E-003
                    52 -2.164504156520118E-004
                    53  0.000000000000000E+000
                    54  6.704734749447838E-006
                    55  7.760733982585760E-005
                    56  0.000000000000000E+000
                    57  0.705688132800978     
                    58  6.601155651694010E-003
                    59 -9.556887006828742E-003
                    60  0.000000000000000E+000
                    61  1.937349556498355E-005
                    62  1.486439557511741E-004
                    63  0.000000000000000E+000
                    64  1.605397518733358E-003
                    65 -1.147082166337822E-003
                    66  1.133802374529079E-004
                    67  0.000000000000000E+000
                    68 -1.783677787708000E-004
                    69 -4.873592284108320E-004
                    70  0.000000000000000E+000
                    71  0.705688132800978     
                    72  6.601155651694010E-003
                    73 -9.556887006828742E-003
                    74  0.000000000000000E+000
                    75 -1.937349556498355E-005
                    76  1.486439557511741E-004
                    77  0.000000000000000E+000
                    78 -1.605397518733358E-003
                    79 -1.147082166337822E-003
                    80  1.133802374529079E-004
                    81  0.000000000000000E+000
                    82  1.783677787708000E-004
                    83 -4.873592284108320E-004
                    84  0.000000000000000E+000
                    85  5.062862153160818E-004
                    86  3.228859641164106E-004
                    87  0.000000000000000E+000
                    88  0.000000000000000E+000
                    89  2.485153095027688E-004
                    90 -7.661868414917550E-004
                    91  8.670444316225107E-004
                    92  0.000000000000000E+000
                    93  3.572389494260170E-004
                    94 -1.880986809931980E-004
                    95 -7.661868414917550E-004
                    96  8.670444316225107E-004
                    97  0.000000000000000E+000
                    98 -3.572389494260170E-004
                    99 -1.880986809931980E-004
 Sym= __5_A1_
 Ene=   5.00000000000000     
 Spin= Alpha
 Occup=    1.00000000000000     
                     1  1.551738674434633E-002
                     2 -0.670526540726838     
                     3  8.170915011789495E-002
                     4  0.000000000000000E+000
                     5  0.000000000000000E+000
                     6  0.167900176069628     
                     7  0.000000000000000E+000
                     8  0.000000000000000E+000
                     9 -3.551465160975456E-002
                    10 -4.261507838101566E-003
                    11  0.000000000000000E+000
                    12  0.000000000000000E+000
                    13  1.299140382633683E-002
                    14  0.000000000000000E+000
                    15  1.955773743420084E-003
                    16 -0.134875412866904     
                    17  9.088479321527268E-002
                    18  0.000000000000000E+000
                    19  0.000000000000000E+000
                    20 -4.727612583397353E-002
                    21  0.000000000000000E+000
                    22  0.000000000000000E+000
                    23  3.786262677348506E-002
                    24 -9.104012603875590E-004
                    25  0.000000000000000E+000
                    26  0.000000000000000E+000
                    27  3.354713206796230E-003
                    28  0.000000000000000E+000
                    29  1.093291801350854E-002
                    30 -0.367699979083151     
                    31  0.157296177179256     
                    32  0.000000000000000E+000
                    33  0.182180421274234     
                    34 -3.361915855119441E-002
                    35  0.000000000000000E+000
                    36 -8.361391276071947E-002
                    37  1.974666001280545E-002
                    38  3.062010172535474E-003
                    39  0.000000000000000E+000
                    40  1.550176078215923E-002
                    41  1.772593584229262E-002
                    42  0.000000000000000E+000
                    43  1.093291801350854E-002
                    44 -0.367699979083151     
                    45  0.157296177179256     
                    46  0.000000000000000E+000
                    47 -0.182180421274234     
                    48 -3.361915855119441E-002
                    49  0.000000000000000E+000
                    50  8.361391276071947E-002
                    51  1.974666001280545E-002
                    52  3.062010172535474E-003
                    53  0.000000000000000E+000
                    54 -1.550176078215923E-002
                    55  1.772593584229262E-002
                    56  0.000000000000000E+000
                    57  5.498334214322178E-003
                    58 -0.161989482497168     
                    59  3.184939823843690E-002
                    60  0.000000000000000E+000
                    61  4.425736635156934E-002
                    62 -5.270249463801763E-002
                    63  0.000000000000000E+000
                    64  6.284149217855825E-003
                    65  1.690365822014144E-002
                    66 -6.594918938819881E-003
                    67  0.000000000000000E+000
                    68  2.782738713517970E-003
                    69  2.119762364837604E-003
                    70  0.000000000000000E+000
                    71  5.498334214322178E-003
                    72 -0.161989482497168     
                    73  3.184939823843690E-002
                    74  0.000000000000000E+000
                    75 -4.425736635156934E-002
                    76 -5.270249463801763E-002
                    77  0.000000000000000E+000
                    78 -6.284149217855825E-003
                    79  1.690365822014144E-002
                    80 -6.594918938819881E-003
                    81  0.000000000000000E+000
                    82 -2.782738713517970E-003
                    83  2.119762364837604E-003
                    84  0.000000000000000E+000
                    85 -2.133075994047433E-002
                    86  1.585840794693804E-002
                    87  0.000000000000000E+000
                    88  0.000000000000000E+000
                    89 -2.612965703795969E-003
                    90 -2.718057910510764E-002
                    91  8.372302339789266E-003
                    92  0.000000000000000E+000
                    93  1.452773150920161E-003
                    94 -2.328302594559432E-003
                    95 -2.718057910510764E-002
                    96  8.372302339789266E-003
                    97  0.000000000000000E+000