[Molden Format]
[Atoms] AU
  N     1    7     0.0000000000    0.0000000000    2.7646383000        
  C     2    6     0.0000000000    0.0000000000   -2.4477348800        
  C     3    6     0.0000000000    2.0754681300    1.4665395500        
  C     4    6     0.0000000000   -2.0754681300    1.4665395500        
  C     5    6     0.0000000000    2.2806112100   -1.1339665200        
  C     6    6     0.0000000000   -2.2806112100   -1.1339665200        
  H     7    1     0.0000000000    0.0000000000   -4.4940690900        
  H     8    1     0.0000000000    4.0863643000   -2.0814264400        
  H     9    1     0.0000000000   -4.0863643000   -2.0814264400        
[5D7F]
[GTO]
  1  0
   s     9 1.00
  0.904600D+04  0.700000D-03
  0.135700D+04  0.538900D-02
  0.309300D+03  0.274060D-01
  0.877300D+02  0.103207D+00
  0.285600D+02  0.278723D+00
  0.102100D+02  0.448540D+00
  0.383800D+01  0.278238D+00
  0.746600D+00  0.154400D-01
  0.224800D+00 -0.286400D-02
   s     9 1.00
  0.904600D+04 -0.153000D-03
  0.135700D+04 -0.120800D-02
  0.309300D+03 -0.599200D-02
  0.877300D+02 -0.245440D-01
  0.285600D+02 -0.674590D-01
  0.102100D+02 -0.158078D+00
  0.383800D+01 -0.121831D+00
  0.746600D+00  0.549003D+00
  0.224800D+00  0.578815D+00
   s     1 1.00
  0.224800D+00  0.100000D+01
   p     4 1.00
  0.135500D+02  0.399190D-01
  0.291700D+01  0.217169D+00
  0.797300D+00  0.510319D+00
  0.218500D+00  0.462214D+00
   p     1 1.00
  0.218500D+00  0.100000D+01
   d     1 1.00
  0.817000D+00  0.100000D+01
  
  2  0
   s     9 1.00
  0.666500D+04  0.692000D-03
  0.100000D+04  0.532900D-02
  0.228000D+03  0.270770D-01
  0.647100D+02  0.101718D+00
  0.210600D+02  0.274740D+00
  0.749500D+01  0.448564D+00
  0.279700D+01  0.285074D+00
  0.521500D+00  0.152040D-01
  0.159600D+00 -0.319100D-02
   s     9 1.00
  0.666500D+04 -0.146000D-03
  0.100000D+04 -0.115400D-02
  0.228000D+03 -0.572500D-02
  0.647100D+02 -0.233120D-01
  0.210600D+02 -0.639550D-01
  0.749500D+01 -0.149981D+00
  0.279700D+01 -0.127262D+00
  0.521500D+00  0.544529D+00
  0.159600D+00  0.580496D+00
   s     1 1.00
  0.159600D+00  0.100000D+01
   p     4 1.00
  0.943900D+01  0.381090D-01
  0.200200D+01  0.209480D+00
  0.545600D+00  0.508557D+00
  0.151700D+00  0.468842D+00
   p     1 1.00
  0.151700D+00  0.100000D+01
   d     1 1.00
  0.550000D+00  0.100000D+01
  
  3  0
   s     9 1.00
  0.666500D+04  0.692000D-03
  0.100000D+04  0.532900D-02
  0.228000D+03  0.270770D-01
  0.647100D+02  0.101718D+00
  0.210600D+02  0.274740D+00
  0.749500D+01  0.448564D+00
  0.279700D+01  0.285074D+00
  0.521500D+00  0.152040D-01
  0.159600D+00 -0.319100D-02
   s     9 1.00
  0.666500D+04 -0.146000D-03
  0.100000D+04 -0.115400D-02
  0.228000D+03 -0.572500D-02
  0.647100D+02 -0.233120D-01
  0.210600D+02 -0.639550D-01
  0.749500D+01 -0.149981D+00
  0.279700D+01 -0.127262D+00
  0.521500D+00  0.544529D+00
  0.159600D+00  0.580496D+00
   s     1 1.00
  0.159600D+00  0.100000D+01
   p     4 1.00
  0.943900D+01  0.381090D-01
  0.200200D+01  0.209480D+00
  0.545600D+00  0.508557D+00
  0.151700D+00  0.468842D+00
   p     1 1.00
  0.151700D+00  0.100000D+01
   d     1 1.00
  0.550000D+00  0.100000D+01
  
  4  0
   s     9 1.00
  0.666500D+04  0.692000D-03
  0.100000D+04  0.532900D-02
  0.228000D+03  0.270770D-01
  0.647100D+02  0.101718D+00
  0.210600D+02  0.274740D+00
  0.749500D+01  0.448564D+00
  0.279700D+01  0.285074D+00
  0.521500D+00  0.152040D-01
  0.159600D+00 -0.319100D-02
   s     9 1.00
  0.666500D+04 -0.146000D-03
  0.100000D+04 -0.115400D-02
  0.228000D+03 -0.572500D-02
  0.647100D+02 -0.233120D-01
  0.210600D+02 -0.639550D-01
  0.749500D+01 -0.149981D+00
  0.279700D+01 -0.127262D+00
  0.521500D+00  0.544529D+00
  0.159600D+00  0.580496D+00
   s     1 1.00
  0.159600D+00  0.100000D+01
   p     4 1.00
  0.943900D+01  0.381090D-01
  0.200200D+01  0.209480D+00
  0.545600D+00  0.508557D+00
  0.151700D+00  0.468842D+00
   p     1 1.00
  0.151700D+00  0.100000D+01
   d     1 1.00
  0.550000D+00  0.100000D+01
  
  5  0
   s     9 1.00
  0.666500D+04  0.692000D-03
  0.100000D+04  0.532900D-02
  0.228000D+03  0.270770D-01
  0.647100D+02  0.101718D+00
  0.210600D+02  0.274740D+00
  0.749500D+01  0.448564D+00
  0.279700D+01  0.285074D+00
  0.521500D+00  0.152040D-01
  0.159600D+00 -0.319100D-02
   s     9 1.00
  0.666500D+04 -0.146000D-03
  0.100000D+04 -0.115400D-02
  0.228000D+03 -0.572500D-02
  0.647100D+02 -0.233120D-01
  0.210600D+02 -0.639550D-01
  0.749500D+01 -0.149981D+00
  0.279700D+01 -0.127262D+00
  0.521500D+00  0.544529D+00
  0.159600D+00  0.580496D+00
   s     1 1.00
  0.159600D+00  0.100000D+01
   p     4 1.00
  0.943900D+01  0.381090D-01
  0.200200D+01  0.209480D+00
  0.545600D+00  0.508557D+00
  0.151700D+00  0.468842D+00
   p     1 1.00
  0.151700D+00  0.100000D+01
   d     1 1.00
  0.550000D+00  0.100000D+01
  
  6  0
   s     9 1.00
  0.666500D+04  0.692000D-03
  0.100000D+04  0.532900D-02
  0.228000D+03  0.270770D-01
  0.647100D+02  0.101718D+00
  0.210600D+02  0.274740D+00
  0.749500D+01  0.448564D+00
  0.279700D+01  0.285074D+00
  0.521500D+00  0.152040D-01
  0.159600D+00 -0.319100D-02
   s     9 1.00
  0.666500D+04 -0.146000D-03
  0.100000D+04 -0.115400D-02
  0.228000D+03 -0.572500D-02
  0.647100D+02 -0.233120D-01
  0.210600D+02 -0.639550D-01
  0.749500D+01 -0.149981D+00
  0.279700D+01 -0.127262D+00
  0.521500D+00  0.544529D+00
  0.159600D+00  0.580496D+00
   s     1 1.00
  0.159600D+00  0.100000D+01
   p     4 1.00
  0.943900D+01  0.381090D-01
  0.200200D+01  0.209480D+00
  0.545600D+00  0.508557D+00
  0.151700D+00  0.468842D+00
   p     1 1.00
  0.151700D+00  0.100000D+01
   d     1 1.00
  0.550000D+00  0.100000D+01
  
  7  0
   s     4 1.00
  0.130100D+02  0.196850D-01
  0.196200D+01  0.137977D+00
  0.444600D+00  0.478148D+00
  0.122000D+00  0.501240D+00
   s     1 1.00
  0.122000D+00  0.100000D+01
   p     1 1.00
  0.727000D+00  0.100000D+01
  
  8  0
   s     4 1.00
  0.130100D+02  0.196850D-01
  0.196200D+01  0.137977D+00
  0.444600D+00  0.478148D+00
  0.122000D+00  0.501240D+00
   s     1 1.00
  0.122000D+00  0.100000D+01
   p     1 1.00
  0.727000D+00  0.100000D+01
  
  9  0
   s     4 1.00
  0.130100D+02  0.196850D-01
  0.196200D+01  0.137977D+00
  0.444600D+00  0.478148D+00
  0.122000D+00  0.501240D+00
   s     1 1.00
  0.122000D+00  0.100000D+01
   p     1 1.00
  0.727000D+00  0.100000D+01
  
[MO]
 Sym= __1_A1_
 Ene=  0.000000000000000E+000
 Spin= Alpha
 Occup=    2.00000000000000     
                     1   1.00145357507653     
                     2  7.051091506038464E-003
                     3 -1.105152182643721E-002
                     4  0.000000000000000E+000
                     5  0.000000000000000E+000
                     6 -2.962101249241682E-003
                     7  0.000000000000000E+000
                     8  0.000000000000000E+000
                     9  4.139081867923316E-003
                    10 -1.304968711987430E-005
                    11  0.000000000000000E+000
                    12  0.000000000000000E+000
                    13 -4.099436457897222E-004
                    14  0.000000000000000E+000
                    15 -1.805773994698948E-004
                    16 -6.448250237725375E-004
                    17  4.271685681265656E-003
                    18  0.000000000000000E+000
                    19  0.000000000000000E+000
                    20 -8.779900257359038E-005
                    21  0.000000000000000E+000
                    22  0.000000000000000E+000
                    23  1.718520189926514E-003
                    24  1.188948978117354E-004
                    25  0.000000000000000E+000
                    26  0.000000000000000E+000
                    27 -2.935157538512352E-005
                    28  0.000000000000000E+000
                    29  7.894282926091774E-005
                    30 -1.015438463764203E-004
                    31  3.961263502883791E-003
                    32  0.000000000000000E+000
                    33 -4.163270928409086E-005
                    34 -2.153187015975126E-004
                    35  0.000000000000000E+000
                    36 -2.066072556261299E-003
                    37  6.108849698241295E-005
                    38 -2.960790429871326E-005
                    39  0.000000000000000E+000
                    40  5.350761778168964E-004
                    41  2.635681036814428E-004
                    42  0.000000000000000E+000
                    43  7.894282926091774E-005
                    44 -1.015438463764203E-004
                    45  3.961263502883791E-003
                    46  0.000000000000000E+000
                    47  4.163270928409086E-005
                    48 -2.153187015975126E-004
                    49  0.000000000000000E+000
                    50  2.066072556261299E-003
                    51  6.108849698241295E-005
                    52 -2.960790429871326E-005
                    53  0.000000000000000E+000
                    54 -5.350761778168964E-004
                    55  2.635681036814428E-004
                    56  0.000000000000000E+000
                    57  7.900238878283328E-005
                    58  2.519684735924334E-004
                    59 -2.848510981992596E-003
                    60  0.000000000000000E+000
                    61  5.857818468066220E-005
                    62 -6.348008218445768E-005
                    63  0.000000000000000E+000
                    64  2.089815309232319E-003
                    65 -3.397254502915822E-004
                    66  4.984613438053194E-005
                    67  0.000000000000000E+000
                    68  1.722188235626616E-004
                    69 -7.211228211675992E-006
                    70  0.000000000000000E+000
                    71  7.900238878283328E-005
                    72  2.519684735924334E-004
                    73 -2.848510981992596E-003
                    74  0.000000000000000E+000
                    75 -5.857818468066220E-005
                    76 -6.348008218445768E-005
                    77  0.000000000000000E+000
                    78 -2.089815309232319E-003
                    79 -3.397254502915822E-004
                    80  4.984613438053194E-005
                    81  0.000000000000000E+000
                    82 -1.722188235626616E-004
                    83 -7.211228211675992E-006
                    84  0.000000000000000E+000
                    85 -1.361798491260158E-004
                    86  4.620873036377876E-004
                    87  0.000000000000000E+000
                    88  0.000000000000000E+000
                    89 -6.728105753187333E-005
                    90 -1.262839434370041E-004
                    91 -4.229300082495299E-004
                    92  0.000000000000000E+000
                    93 -9.610811426214033E-005
                    94 -1.719640593362216E-005
                    95 -1.262839434370041E-004
                    96 -4.229300082495299E-004
                    97  0.000000000000000E+000
                    98  9.610811426214033E-005
                    99 -1.719640593362216E-005
 Sym= __2_A1_
 Ene=  0.000000000000000E+000
 Spin= Alpha
 Occup=    2.00000000000000     
                     1 -2.445313951359980E-004
                     2  1.141515231162639E-003
                     3 -4.411005695945848E-003
                     4  0.000000000000000E+000
                     5  0.000000000000000E+000
                     6  2.681798131712055E-004
                     7  0.000000000000000E+000
                     8  0.000000000000000E+000
                     9  1.349866097569423E-003
                    10  1.250007421877076E-004
                    11  0.000000000000000E+000
                    12  0.000000000000000E+000
                    13  6.488469289140248E-004
                    14  0.000000000000000E+000
                    15  6.680648673054742E-004
                    16 -5.811700513210555E-004
                    17  3.522885482666144E-003
                    18  0.000000000000000E+000
                    19  0.000000000000000E+000
                    20 -1.518410754869174E-005
                    21  0.000000000000000E+000
                    22  0.000000000000000E+000
                    23  1.490049470710059E-003
                    24 -6.686949262308651E-005
                    25  0.000000000000000E+000
                    26  0.000000000000000E+000
                    27 -3.157150579784610E-004
                    28  0.000000000000000E+000
                    29  0.707724649447113     
                    30  4.790697068914847E-003
                    31 -2.945628258018357E-003
                    32  0.000000000000000E+000
                    33 -1.816948655715425E-003
                    34 -2.440935021401255E-004
                    35  0.000000000000000E+000
                    36 -2.794617955354239E-004
                    37  1.097064523445584E-003
                    38  2.195098654572467E-004
                    39  0.000000000000000E+000
                    40 -7.853786888000622E-004
                    41 -4.663520113370056E-004
                    42  0.000000000000000E+000
                    43  0.707724649447113     
                    44  4.790697068914847E-003
                    45 -2.945628258018357E-003
                    46  0.000000000000000E+000
                    47  1.816948655715425E-003
                    48 -2.440935021401255E-004
                    49  0.000000000000000E+000
                    50  2.794617955354239E-004
                    51  1.097064523445584E-003
                    52  2.195098654572467E-004
                    53  0.000000000000000E+000
                    54  7.853786888000622E-004
                    55 -4.663520113370056E-004
                    56  0.000000000000000E+000
                    57  1.515806443145202E-002
                    58 -2.755636962576671E-004
                    59 -2.418308265022336E-004
                    60  0.000000000000000E+000
                    61  8.642870309151159E-005
                    62 -5.089835273995273E-005
                    63  0.000000000000000E+000
                    64  1.065947073558765E-003
                    65  8.985373217434307E-004
                    66 -1.981997437517450E-004
                    67  0.000000000000000E+000
                    68 -3.411802599257608E-004
                    69  1.281757709034524E-004
                    70  0.000000000000000E+000
                    71  1.515806443145202E-002
                    72 -2.755636962576671E-004
                    73 -2.418308265022336E-004
                    74  0.000000000000000E+000
                    75 -8.642870309151159E-005
                    76 -5.089835273995273E-005
                    77  0.000000000000000E+000
                    78 -1.065947073558765E-003
                    79  8.985373217434307E-004
                    80 -1.981997437517450E-004
                    81  0.000000000000000E+000
                    82  3.411802599257608E-004
                    83  1.281757709034524E-004
                    84  0.000000000000000E+000
                    85  1.723444733689116E-004
                    86  4.368814864940908E-004
                    87  0.000000000000000E+000
                    88  0.000000000000000E+000
                    89  1.080014920584040E-005
                    90 -2.259718127288031E-004
                    91  2.581031667651836E-004
                    92  0.000000000000000E+000
                    93 -3.468114773231966E-005
                    94  5.843759195209393E-005
                    95 -2.259718127288031E-004
                    96  2.581031667651836E-004
                    97  0.000000000000000E+000
                    98  3.468114773231966E-005
                    99  5.843759195209393E-005
 Sym= __3_A1_
 Ene=  0.000000000000000E+000
 Spin= Alpha
 Occup=    2.00000000000000     
                     1 -2.076477189083790E-005
                     2 -1.004461561231336E-004
                     3  9.981493837015888E-005
                     4  0.000000000000000E+000
                     5  0.000000000000000E+000
                     6  3.539752526099701E-005
                     7  0.000000000000000E+000
                     8  0.000000000000000E+000
                     9  8.486876659708417E-005
                    10  2.066762178461635E-006
                    11  0.000000000000000E+000
                    12  0.000000000000000E+000
                    13  1.111521221112727E-006
                    14  0.000000000000000E+000
                    15  0.998211238934972     
                    16  9.032444933126965E-003
                    17 -1.151823866603179E-002
                    18  0.000000000000000E+000
                    19  0.000000000000000E+000
                    20  1.880940961469272E-005
                    21  0.000000000000000E+000
                    22  0.000000000000000E+000
                    23 -1.740740606012559E-003
                    24  3.847949734153190E-004
                    25  0.000000000000000E+000
                    26  0.000000000000000E+000
                    27 -4.403659737660878E-004
                    28  0.000000000000000E+000
                    29 -1.935389903935203E-003
                    30 -3.121790697045361E-004
                    31  5.663352583250792E-004
                    32  0.000000000000000E+000
                    33 -5.497879757247245E-005
                    34 -1.589877747192796E-005
                    35  0.000000000000000E+000
                    36  9.219367777871587E-005
                    37 -2.718624563935568E-004
                    38  5.620607695532410E-005
                    39  0.000000000000000E+000
                    40  2.939988079666985E-005
                    41 -6.426626680098395E-005
                    42  0.000000000000000E+000
                    43 -1.935389903935203E-003
                    44 -3.121790697045361E-004
                    45  5.663352583250792E-004
                    46  0.000000000000000E+000
                    47  5.497879757247245E-005
                    48 -1.589877747192796E-005
                    49  0.000000000000000E+000
                    50 -9.219367777871587E-005
                    51 -2.718624563935568E-004
                    52  5.620607695532410E-005
                    53  0.000000000000000E+000
                    54 -2.939988079666985E-005
                    55 -6.426626680098395E-005
                    56  0.000000000000000E+000
                    57  5.739865258849846E-002
                    58 -1.593818091725413E-004
                    59  2.087463007782030E-003
                    60  0.000000000000000E+000
                    61  1.158827753376079E-004
                    62  5.767929716528281E-005
                    63  0.000000000000000E+000
                    64 -1.500752347148880E-003
                    65 -3.680000288455251E-004
                    66 -8.548411405664085E-005
                    67  0.000000000000000E+000
                    68 -8.312559536000794E-005
                    69  3.074823994541024E-004
                    70  0.000000000000000E+000
                    71  5.739865258849846E-002
                    72 -1.593818091725413E-004
                    73  2.087463007782030E-003
                    74  0.000000000000000E+000
                    75 -1.158827753376079E-004
                    76  5.767929716528281E-005
                    77  0.000000000000000E+000
                    78  1.500752347148880E-003
                    79 -3.680000288455251E-004
                    80 -8.548411405664085E-005
                    81  0.000000000000000E+000
                    82  8.312559536000794E-005
                    83  3.074823994541024E-004
                    84  0.000000000000000E+000
                    85 -8.021278749696419E-004
                    86  1.215477234236325E-003
                    87  0.000000000000000E+000
                    88  0.000000000000000E+000
                    89 -5.195172271340943E-004
                    90  1.863191561701024E-004
                    91  3.757836646343583E-004
                    92  0.000000000000000E+000
                    93 -8.364319064877903E-005
                    94  6.140280256859427E-005
                    95  1.863191561701024E-004
                    96  3.757836646343583E-004
                    97  0.000000000000000E+000
                    98  8.364319064877903E-005
                    99  6.140280256859427E-005
 Sym= __4_A1_
 Ene=  0.000000000000000E+000
 Spin= Alpha
 Occup=    2.00000000000000     
                     1  7.534234098457520E-005
                     2  1.968357643656192E-004
                     3 -1.175400687532881E-003
                     4  0.000000000000000E+000
                     5  0.000000000000000E+000
                     6 -3.033444373687189E-005
                     7  0.000000000000000E+000
                     8  0.000000000000000E+000
                     9  4.916511844717851E-004
                    10  5.410480434173109E-005
                    11  0.000000000000000E+000
                    12  0.000000000000000E+000
                    13 -4.904777481262362E-005
                    14  0.000000000000000E+000
                    15 -8.212094139428334E-002
                    16 -1.730554262214127E-003
                    17  5.857463755309095E-003
                    18  0.000000000000000E+000
                    19  0.000000000000000E+000
                    20 -5.794124246686984E-005
                    21  0.000000000000000E+000
                    22  0.000000000000000E+000
                    23  2.358345882764816E-003
                    24 -3.874514134044596E-004
                    25  0.000000000000000E+000
                    26  0.000000000000000E+000
                    27  3.860357719967040E-004
                    28  0.000000000000000E+000
                    29 -1.554532634240380E-002
                    30 -6.668299151676508E-004
                    31  3.662961120820455E-003
                    32  0.000000000000000E+000
                    33  3.355365962401511E-005
                    34  2.102996371507986E-004
                    35  0.000000000000000E+000
                    36 -4.066931600195243E-004
                    37 -1.242405025395393E-003
                    38 -2.094240050020149E-004
                    39  0.000000000000000E+000
                    40 -1.613635938136276E-005
                    41  8.441594405442072E-005
                    42  0.000000000000000E+000
                    43 -1.554532634240380E-002
                    44 -6.668299151676508E-004
                    45  3.662961120820455E-003
                    46  0.000000000000000E+000
                    47 -3.355365962401511E-005
                    48  2.102996371507986E-004
                    49  0.000000000000000E+000
                    50  4.066931600195243E-004
                    51 -1.242405025395393E-003
                    52 -2.094240050020149E-004
                    53  0.000000000000000E+000
                    54  1.613635938136276E-005
                    55  8.441594405442072E-005
                    56  0.000000000000000E+000
                    57  0.705770413761290     
                    58  6.752131684795062E-003
                    59 -9.780750455988236E-003
                    60  0.000000000000000E+000
                    61  2.588232795774455E-006
                    62  1.570590898508550E-004
                    63  0.000000000000000E+000
                    64  1.663750969748751E-003
                    65 -1.200367005921681E-003
                    66  1.160711709361536E-004
                    67  0.000000000000000E+000
                    68 -1.963276159954126E-004
                    69 -5.053611858749366E-004
                    70  0.000000000000000E+000
                    71  0.705770413761290     
                    72  6.752131684795062E-003
                    73 -9.780750455988236E-003
                    74  0.000000000000000E+000
                    75 -2.588232795774455E-006
                    76  1.570590898508550E-004
                    77  0.000000000000000E+000
                    78 -1.663750969748751E-003
                    79 -1.200367005921681E-003
                    80  1.160711709361536E-004
                    81  0.000000000000000E+000
                    82  1.963276159954126E-004
                    83 -5.053611858749366E-004
                    84  0.000000000000000E+000
                    85  5.417429779544000E-004
                    86  3.089469149345140E-004
                    87  0.000000000000000E+000
                    88  0.000000000000000E+000
                    89  2.630634863385795E-004
                    90 -8.044976748756376E-004
                    91  8.691768529159074E-004
                    92  0.000000000000000E+000
                    93  3.699550040426305E-004
                    94 -1.934798017581069E-004
                    95 -8.044976748756376E-004
                    96  8.691768529159074E-004
                    97  0.000000000000000E+000
                    98 -3.699550040426305E-004
                    99 -1.934798017581069E-004
 Sym= __5_A1_
 Ene=  0.000000000000000E+000
 Spin= Alpha
 Occup=    2.00000000000000     
                     1  1.613460159963905E-002
                     2 -0.668380307628723     
                     3  8.535374014526941E-002
                     4  0.000000000000000E+000
                     5  0.000000000000000E+000
                     6  0.170918542622068     
                     7  0.000000000000000E+000
                     8  0.000000000000000E+000
                     9 -3.785076878190832E-002
                    10 -4.338451359996192E-003
                    11  0.000000000000000E+000
                    12  0.000000000000000E+000
                    13  1.300655064298271E-002
                    14  0.000000000000000E+000
                    15  2.115261854558724E-003
                    16 -0.135498208273666     
                    17  9.169741049036073E-002
                    18  0.000000000000000E+000
                    19  0.000000000000000E+000
                    20 -4.821957841965296E-002
                    21  0.000000000000000E+000
                    22  0.000000000000000E+000
                    23  3.778011449161166E-002
                    24 -9.706709033025088E-004
                    25  0.000000000000000E+000
                    26  0.000000000000000E+000
                    27  3.466472899022586E-003
                    28  0.000000000000000E+000
                    29  1.151912797503839E-002
                    30 -0.369654327700724     
                    31  0.158735074819588     
                    32  0.000000000000000E+000
                    33  0.184284465449569     
                    34 -3.435606048145524E-002
                    35  0.000000000000000E+000
                    36 -8.483768104510629E-002
                    37  2.050011208845714E-002
                    38  3.254583466254729E-003
                    39  0.000000000000000E+000
                    40  1.544871083113304E-002
                    41  1.798032051005435E-002
                    42  0.000000000000000E+000
                    43  1.151912797503839E-002
                    44 -0.369654327700724     
                    45  0.158735074819588     
                    46  0.000000000000000E+000
                    47 -0.184284465449569     
                    48 -3.435606048145524E-002
                    49  0.000000000000000E+000
                    50  8.483768104510629E-002
                    51  2.050011208845714E-002
                    52  3.254583466254729E-003
                    53  0.000000000000000E+000
                    54 -1.544871083113304E-002
                    55  1.798032051005435E-002
                    56  0.000000000000000E+000
                    57  5.597908400987188E-003
                    58 -0.161763955772830     
                    59  3.309386290834302E-002
                    60  0.000000000000000E+000
                    61  4.544135877435742E-002
                    62 -5.319412180145242E-002
                    63  0.000000000000000E+000
                    64  5.706399796379683E-003
                    65  1.749158904345813E-002
                    66 -6.481210880921874E-003
                    67  0.000000000000000E+000
                    68  3.044245427419581E-003
                    69  2.177631583874368E-003
                    70  0.000000000000000E+000
                    71  5.597908400987188E-003
                    72 -0.161763955772830     
                    73  3.309386290834302E-002
                    74  0.000000000000000E+000
                    75 -4.544135877435742E-002
                    76 -5.319412180145242E-002
                    77  0.000000000000000E+000
                    78 -5.706399796379683E-003
                    79  1.749158904345813E-002
                    80 -6.481210880921874E-003
                    81  0.000000000000000E+000
                    82 -3.044245427419581E-003
                    83  2.177631583874368E-003
                    84  0.000000000000000E+000
                    85 -2.089711089821109E-002
                    86  1.553122895399461E-002
                    87  0.000000000000000E+000
                    88  0.000000000000000E+000
                    89 -2.569390297605736E-003
                    90 -2.640306983433379E-002
                    91  7.992167891853462E-003
                    92  0.000000000000000E+000
                    93  1.390107161461707E-003
                    94 -2.305256244239578E-003
                    95 -2.640306983433379E-002
                    96  7.992167891853462E-003
                    97  0.000000000000000E+000