[Molden Format]
[Atoms] AU
  N     1    7     0.0000000000    0.0000000000    2.7934341900        
  C     2    6     0.0000000000    0.0000000000   -2.4728308400        
  C     3    6     0.0000000000    2.0974869700    1.4866877900        
  C     4    6     0.0000000000   -2.0974869700    1.4866877900        
  C     5    6     0.0000000000    2.2864751100   -1.1376224700        
  C     6    6     0.0000000000   -2.2864751100   -1.1376224700        
  H     7    1     0.0000000000    0.0000000000   -4.5178637900        
  H     8    1     0.0000000000    4.0935600900   -2.0839917000        
  H     9    1     0.0000000000   -4.0935600900   -2.0839917000        
[5D7F]
[GTO]
  1  0
   s     9 1.00
  0.904600D+04  0.700000D-03
  0.135700D+04  0.538900D-02
  0.309300D+03  0.274060D-01
  0.877300D+02  0.103207D+00
  0.285600D+02  0.278723D+00
  0.102100D+02  0.448540D+00
  0.383800D+01  0.278238D+00
  0.746600D+00  0.154400D-01
  0.224800D+00 -0.286400D-02
   s     9 1.00
  0.904600D+04 -0.153000D-03
  0.135700D+04 -0.120800D-02
  0.309300D+03 -0.599200D-02
  0.877300D+02 -0.245440D-01
  0.285600D+02 -0.674590D-01
  0.102100D+02 -0.158078D+00
  0.383800D+01 -0.121831D+00
  0.746600D+00  0.549003D+00
  0.224800D+00  0.578815D+00
   s     1 1.00
  0.224800D+00  0.100000D+01
   p     4 1.00
  0.135500D+02  0.399190D-01
  0.291700D+01  0.217169D+00
  0.797300D+00  0.510319D+00
  0.218500D+00  0.462214D+00
   p     1 1.00
  0.218500D+00  0.100000D+01
   d     1 1.00
  0.817000D+00  0.100000D+01
  
  2  0
   s     9 1.00
  0.666500D+04  0.692000D-03
  0.100000D+04  0.532900D-02
  0.228000D+03  0.270770D-01
  0.647100D+02  0.101718D+00
  0.210600D+02  0.274740D+00
  0.749500D+01  0.448564D+00
  0.279700D+01  0.285074D+00
  0.521500D+00  0.152040D-01
  0.159600D+00 -0.319100D-02
   s     9 1.00
  0.666500D+04 -0.146000D-03
  0.100000D+04 -0.115400D-02
  0.228000D+03 -0.572500D-02
  0.647100D+02 -0.233120D-01
  0.210600D+02 -0.639550D-01
  0.749500D+01 -0.149981D+00
  0.279700D+01 -0.127262D+00
  0.521500D+00  0.544529D+00
  0.159600D+00  0.580496D+00
   s     1 1.00
  0.159600D+00  0.100000D+01
   p     4 1.00
  0.943900D+01  0.381090D-01
  0.200200D+01  0.209480D+00
  0.545600D+00  0.508557D+00
  0.151700D+00  0.468842D+00
   p     1 1.00
  0.151700D+00  0.100000D+01
   d     1 1.00
  0.550000D+00  0.100000D+01
  
  3  0
   s     9 1.00
  0.666500D+04  0.692000D-03
  0.100000D+04  0.532900D-02
  0.228000D+03  0.270770D-01
  0.647100D+02  0.101718D+00
  0.210600D+02  0.274740D+00
  0.749500D+01  0.448564D+00
  0.279700D+01  0.285074D+00
  0.521500D+00  0.152040D-01
  0.159600D+00 -0.319100D-02
   s     9 1.00
  0.666500D+04 -0.146000D-03
  0.100000D+04 -0.115400D-02
  0.228000D+03 -0.572500D-02
  0.647100D+02 -0.233120D-01
  0.210600D+02 -0.639550D-01
  0.749500D+01 -0.149981D+00
  0.279700D+01 -0.127262D+00
  0.521500D+00  0.544529D+00
  0.159600D+00  0.580496D+00
   s     1 1.00
  0.159600D+00  0.100000D+01
   p     4 1.00
  0.943900D+01  0.381090D-01
  0.200200D+01  0.209480D+00
  0.545600D+00  0.508557D+00
  0.151700D+00  0.468842D+00
   p     1 1.00
  0.151700D+00  0.100000D+01
   d     1 1.00
  0.550000D+00  0.100000D+01
  
  4  0
   s     9 1.00
  0.666500D+04  0.692000D-03
  0.100000D+04  0.532900D-02
  0.228000D+03  0.270770D-01
  0.647100D+02  0.101718D+00
  0.210600D+02  0.274740D+00
  0.749500D+01  0.448564D+00
  0.279700D+01  0.285074D+00
  0.521500D+00  0.152040D-01
  0.159600D+00 -0.319100D-02
   s     9 1.00
  0.666500D+04 -0.146000D-03
  0.100000D+04 -0.115400D-02
  0.228000D+03 -0.572500D-02
  0.647100D+02 -0.233120D-01
  0.210600D+02 -0.639550D-01
  0.749500D+01 -0.149981D+00
  0.279700D+01 -0.127262D+00
  0.521500D+00  0.544529D+00
  0.159600D+00  0.580496D+00
   s     1 1.00
  0.159600D+00  0.100000D+01
   p     4 1.00
  0.943900D+01  0.381090D-01
  0.200200D+01  0.209480D+00
  0.545600D+00  0.508557D+00
  0.151700D+00  0.468842D+00
   p     1 1.00
  0.151700D+00  0.100000D+01
   d     1 1.00
  0.550000D+00  0.100000D+01
  
  5  0
   s     9 1.00
  0.666500D+04  0.692000D-03
  0.100000D+04  0.532900D-02
  0.228000D+03  0.270770D-01
  0.647100D+02  0.101718D+00
  0.210600D+02  0.274740D+00
  0.749500D+01  0.448564D+00
  0.279700D+01  0.285074D+00
  0.521500D+00  0.152040D-01
  0.159600D+00 -0.319100D-02
   s     9 1.00
  0.666500D+04 -0.146000D-03
  0.100000D+04 -0.115400D-02
  0.228000D+03 -0.572500D-02
  0.647100D+02 -0.233120D-01
  0.210600D+02 -0.639550D-01
  0.749500D+01 -0.149981D+00
  0.279700D+01 -0.127262D+00
  0.521500D+00  0.544529D+00
  0.159600D+00  0.580496D+00
   s     1 1.00
  0.159600D+00  0.100000D+01
   p     4 1.00
  0.943900D+01  0.381090D-01
  0.200200D+01  0.209480D+00
  0.545600D+00  0.508557D+00
  0.151700D+00  0.468842D+00
   p     1 1.00
  0.151700D+00  0.100000D+01
   d     1 1.00
  0.550000D+00  0.100000D+01
  
  6  0
   s     9 1.00
  0.666500D+04  0.692000D-03
  0.100000D+04  0.532900D-02
  0.228000D+03  0.270770D-01
  0.647100D+02  0.101718D+00
  0.210600D+02  0.274740D+00
  0.749500D+01  0.448564D+00
  0.279700D+01  0.285074D+00
  0.521500D+00  0.152040D-01
  0.159600D+00 -0.319100D-02
   s     9 1.00
  0.666500D+04 -0.146000D-03
  0.100000D+04 -0.115400D-02
  0.228000D+03 -0.572500D-02
  0.647100D+02 -0.233120D-01
  0.210600D+02 -0.639550D-01
  0.749500D+01 -0.149981D+00
  0.279700D+01 -0.127262D+00
  0.521500D+00  0.544529D+00
  0.159600D+00  0.580496D+00
   s     1 1.00
  0.159600D+00  0.100000D+01
   p     4 1.00
  0.943900D+01  0.381090D-01
  0.200200D+01  0.209480D+00
  0.545600D+00  0.508557D+00
  0.151700D+00  0.468842D+00
   p     1 1.00
  0.151700D+00  0.100000D+01
   d     1 1.00
  0.550000D+00  0.100000D+01
  
  7  0
   s     4 1.00
  0.130100D+02  0.196850D-01
  0.196200D+01  0.137977D+00
  0.444600D+00  0.478148D+00
  0.122000D+00  0.501240D+00
   s     1 1.00
  0.122000D+00  0.100000D+01
   p     1 1.00
  0.727000D+00  0.100000D+01
  
  8  0
   s     4 1.00
  0.130100D+02  0.196850D-01
  0.196200D+01  0.137977D+00
  0.444600D+00  0.478148D+00
  0.122000D+00  0.501240D+00
   s     1 1.00
  0.122000D+00  0.100000D+01
   p     1 1.00
  0.727000D+00  0.100000D+01
  
  9  0
   s     4 1.00
  0.130100D+02  0.196850D-01
  0.196200D+01  0.137977D+00
  0.444600D+00  0.478148D+00
  0.122000D+00  0.501240D+00
   s     1 1.00
  0.122000D+00  0.100000D+01
   p     1 1.00
  0.727000D+00  0.100000D+01
  
[MO]
 Sym= __1_A1_
 Ene=  0.000000000000000E+000
 Spin= Alpha
 Occup=    2.00000000000000     
                     1   1.00140411661582     
                     2  6.786185972215236E-003
                     3 -1.076033228256792E-002
                     4  0.000000000000000E+000
                     5  0.000000000000000E+000
                     6 -2.924259290758924E-003
                     7  0.000000000000000E+000
                     8  0.000000000000000E+000
                     9  4.110653853821662E-003
                    10 -4.337624428425088E-006
                    11  0.000000000000000E+000
                    12  0.000000000000000E+000
                    13 -3.802857362105766E-004
                    14  0.000000000000000E+000
                    15 -1.783530297288754E-004
                    16 -6.379558949798932E-004
                    17  4.147147938241426E-003
                    18  0.000000000000000E+000
                    19  0.000000000000000E+000
                    20 -8.705558343479307E-005
                    21  0.000000000000000E+000
                    22  0.000000000000000E+000
                    23  1.710928043222123E-003
                    24  1.059150511730543E-004
                    25  0.000000000000000E+000
                    26  0.000000000000000E+000
                    27 -3.615757138600696E-005
                    28  0.000000000000000E+000
                    29  7.272521544532242E-005
                    30 -1.067504272398027E-004
                    31  3.919979664304051E-003
                    32  0.000000000000000E+000
                    33 -7.341555563340970E-005
                    34 -1.920113127291503E-004
                    35  0.000000000000000E+000
                    36 -2.027218978440968E-003
                    37  3.181811821495253E-005
                    38 -2.203252294693135E-005
                    39  0.000000000000000E+000
                    40  5.131427814958266E-004
                    41  2.453990212524270E-004
                    42  0.000000000000000E+000
                    43  7.272521544532242E-005
                    44 -1.067504272398027E-004
                    45  3.919979664304051E-003
                    46  0.000000000000000E+000
                    47  7.341555563340970E-005
                    48 -1.920113127291503E-004
                    49  0.000000000000000E+000
                    50  2.027218978440968E-003
                    51  3.181811821495253E-005
                    52 -2.203252294693135E-005
                    53  0.000000000000000E+000
                    54 -5.131427814958266E-004
                    55  2.453990212524270E-004
                    56  0.000000000000000E+000
                    57  7.571255298692571E-005
                    58  2.376569505928916E-004
                    59 -2.801370702472616E-003
                    60  0.000000000000000E+000
                    61  5.818583259520211E-005
                    62 -7.350480308413715E-005
                    63  0.000000000000000E+000
                    64  2.029576577502763E-003
                    65 -3.335266394313970E-004
                    66  3.844918385002526E-005
                    67  0.000000000000000E+000
                    68  1.603284965766808E-004
                    69 -8.960064518991087E-006
                    70  0.000000000000000E+000
                    71  7.571255298692571E-005
                    72  2.376569505928916E-004
                    73 -2.801370702472616E-003
                    74  0.000000000000000E+000
                    75 -5.818583259520211E-005
                    76 -7.350480308413715E-005
                    77  0.000000000000000E+000
                    78 -2.029576577502763E-003
                    79 -3.335266394313970E-004
                    80  3.844918385002526E-005
                    81  0.000000000000000E+000
                    82 -1.603284965766808E-004
                    83 -8.960064518991087E-006
                    84  0.000000000000000E+000
                    85 -1.158666791458906E-004
                    86  4.552058783291170E-004
                    87  0.000000000000000E+000
                    88  0.000000000000000E+000
                    89 -6.312847585532758E-005
                    90 -1.272148446058149E-004
                    91 -4.013372224514370E-004
                    92  0.000000000000000E+000
                    93 -9.277756126852532E-005
                    94 -1.751199478227024E-005
                    95 -1.272148446058149E-004
                    96 -4.013372224514370E-004
                    97  0.000000000000000E+000
                    98  9.277756126852532E-005
                    99 -1.751199478227024E-005
 Sym= __2_A1_
 Ene=  0.000000000000000E+000
 Spin= Alpha
 Occup=    2.00000000000000     
                     1 -2.119449977763751E-004
                     2  1.130811292688678E-003
                     3 -4.023684920641838E-003
                     4  0.000000000000000E+000
                     5  0.000000000000000E+000
                     6  2.474128327573687E-004
                     7  0.000000000000000E+000
                     8  0.000000000000000E+000
                     9  1.242503464139022E-003
                    10  1.152976000731195E-004
                    11  0.000000000000000E+000
                    12  0.000000000000000E+000
                    13  6.365258119319972E-004
                    14  0.000000000000000E+000
                    15  4.791461298361206E-004
                    16 -5.801509011672026E-004
                    17  3.149550260343781E-003
                    18  0.000000000000000E+000
                    19  0.000000000000000E+000
                    20 -3.544501427022089E-005
                    21  0.000000000000000E+000
                    22  0.000000000000000E+000
                    23  1.297203770591973E-003
                    24 -4.937867172294496E-005
                    25  0.000000000000000E+000
                    26  0.000000000000000E+000
                    27 -2.942228166586472E-004
                    28  0.000000000000000E+000
                    29  0.707714323705553     
                    30  4.562438806962561E-003
                    31 -3.069714925947817E-003
                    32  0.000000000000000E+000
                    33 -1.743899609175013E-003
                    34 -2.458218520995694E-004
                    35  0.000000000000000E+000
                    36 -2.202194252344935E-004
                    37  1.122053462981519E-003
                    38  1.921499285967239E-004
                    39  0.000000000000000E+000
                    40 -7.291004801275454E-004
                    41 -4.471416959677322E-004
                    42  0.000000000000000E+000
                    43  0.707714323705553     
                    44  4.562438806962561E-003
                    45 -3.069714925947817E-003
                    46  0.000000000000000E+000
                    47  1.743899609175013E-003
                    48 -2.458218520995694E-004
                    49  0.000000000000000E+000
                    50  2.202194252344935E-004
                    51  1.122053462981519E-003
                    52  1.921499285967239E-004
                    53  0.000000000000000E+000
                    54  7.291004801275454E-004
                    55 -4.471416959677322E-004
                    56  0.000000000000000E+000
                    57  1.392351720586818E-002
                    58 -2.746489790657603E-004
                    59  4.075607799313651E-005
                    60  0.000000000000000E+000
                    61  8.221978906702557E-005
                    62 -3.485924820973652E-005
                    63  0.000000000000000E+000
                    64  8.895218737662536E-004
                    65  9.748653263441287E-004
                    66 -1.881613291286603E-004
                    67  0.000000000000000E+000
                    68 -3.102485075404620E-004
                    69  1.199915132132748E-004
                    70  0.000000000000000E+000
                    71  1.392351720586818E-002
                    72 -2.746489790657603E-004
                    73  4.075607799313651E-005
                    74  0.000000000000000E+000
                    75 -8.221978906702557E-005
                    76 -3.485924820973652E-005
                    77  0.000000000000000E+000
                    78 -8.895218737662536E-004
                    79  9.748653263441287E-004
                    80 -1.881613291286603E-004
                    81  0.000000000000000E+000
                    82  3.102485075404620E-004
                    83  1.199915132132748E-004
                    84  0.000000000000000E+000
                    85  1.433959714287213E-004
                    86  3.972391862766220E-004
                    87  0.000000000000000E+000
                    88  0.000000000000000E+000
                    89  8.602008253831431E-006
                    90 -2.004589162782108E-004
                    91  2.967579455409905E-004
                    92  0.000000000000000E+000
                    93 -3.750506954285784E-005
                    94  5.315985118198249E-005
                    95 -2.004589162782108E-004
                    96  2.967579455409905E-004
                    97  0.000000000000000E+000
                    98  3.750506954285784E-005
                    99  5.315985118198249E-005
 Sym= __3_A1_
 Ene=  0.000000000000000E+000
 Spin= Alpha
 Occup=    2.00000000000000     
                     1 -2.179461022565739E-005
                     2 -1.025762122420308E-004
                     3  1.230003050207975E-004
                     4  0.000000000000000E+000
                     5  0.000000000000000E+000
                     6  3.663155294035881E-005
                     7  0.000000000000000E+000
                     8  0.000000000000000E+000
                     9  7.954169026842388E-005
                    10 -3.606149872220450E-006
                    11  0.000000000000000E+000
                    12  0.000000000000000E+000
                    13 -3.041311740819984E-006
                    14  0.000000000000000E+000
                    15  0.998095401280000     
                    16  8.899145585558108E-003
                    17 -1.136042937625854E-002
                    18  0.000000000000000E+000
                    19  0.000000000000000E+000
                    20 -4.213467953071509E-006
                    21  0.000000000000000E+000
                    22  0.000000000000000E+000
                    23 -1.705369576325045E-003
                    24  4.094424305282984E-004
                    25  0.000000000000000E+000
                    26  0.000000000000000E+000
                    27 -4.057783018042278E-004
                    28  0.000000000000000E+000
                    29 -1.717422542378861E-003
                    30 -3.264739890092303E-004
                    31  5.576051354201469E-004
                    32  0.000000000000000E+000
                    33 -4.869394389873192E-005
                    34 -1.103594246114564E-006
                    35  0.000000000000000E+000
                    36  9.703242720240517E-005
                    37 -2.752611592554900E-004
                    38  4.938224122189947E-005
                    39  0.000000000000000E+000
                    40  3.400038527720556E-005
                    41 -6.543463353732884E-005
                    42  0.000000000000000E+000
                    43 -1.717422542378861E-003
                    44 -3.264739890092303E-004
                    45  5.576051354201469E-004
                    46  0.000000000000000E+000
                    47  4.869394389873192E-005
                    48 -1.103594246114564E-006
                    49  0.000000000000000E+000
                    50 -9.703242720240517E-005
                    51 -2.752611592554900E-004
                    52  4.938224122189947E-005
                    53  0.000000000000000E+000
                    54 -3.400038527720556E-005
                    55 -6.543463353732884E-005
                    56  0.000000000000000E+000
                    57  5.825994433369765E-002
                    58 -1.237448972365272E-004
                    59  2.046440630702640E-003
                    60  0.000000000000000E+000
                    61  1.030472922033246E-004
                    62  5.302068048952505E-005
                    63  0.000000000000000E+000
                    64 -1.480086711738808E-003
                    65 -3.813035816711860E-004
                    66 -6.909745030953501E-005
                    67  0.000000000000000E+000
                    68 -8.357066437127870E-005
                    69  3.105285237077454E-004
                    70  0.000000000000000E+000
                    71  5.825994433369765E-002
                    72 -1.237448972365272E-004
                    73  2.046440630702640E-003
                    74  0.000000000000000E+000
                    75 -1.030472922033246E-004
                    76  5.302068048952505E-005
                    77  0.000000000000000E+000
                    78  1.480086711738808E-003
                    79 -3.813035816711860E-004
                    80 -6.909745030953501E-005
                    81  0.000000000000000E+000
                    82  8.357066437127870E-005
                    83  3.105285237077454E-004
                    84  0.000000000000000E+000
                    85 -8.215602925003394E-004
                    86  1.233513735484167E-003
                    87  0.000000000000000E+000
                    88  0.000000000000000E+000
                    89 -5.210188961186843E-004
                    90  1.824010548019681E-004
                    91  3.703567275162545E-004
                    92  0.000000000000000E+000
                    93 -7.953329779933364E-005
                    94  6.683592057160498E-005
                    95  1.824010548019681E-004
                    96  3.703567275162545E-004
                    97  0.000000000000000E+000
                    98  7.953329779933364E-005
                    99  6.683592057160498E-005
 Sym= __4_A1_
 Ene=  0.000000000000000E+000
 Spin= Alpha
 Occup=    2.00000000000000     
                     1  7.109359424600334E-005
                     2  1.871586118449394E-004
                     3 -1.145632552687625E-003
                     4  0.000000000000000E+000
                     5  0.000000000000000E+000
                     6 -2.014449299304917E-005
                     7  0.000000000000000E+000
                     8  0.000000000000000E+000
                     9  4.771309145311493E-004
                    10  4.618503141483341E-005
                    11  0.000000000000000E+000
                    12  0.000000000000000E+000
                    13 -5.320840611243048E-005
                    14  0.000000000000000E+000
                    15 -8.329006408766625E-002
                    16 -1.703027737276480E-003
                    17  5.745102476772048E-003
                    18  0.000000000000000E+000
                    19  0.000000000000000E+000
                    20 -5.740954751635152E-005
                    21  0.000000000000000E+000
                    22  0.000000000000000E+000
                    23  2.337139081512232E-003
                    24 -3.575940515330095E-004
                    25  0.000000000000000E+000
                    26  0.000000000000000E+000
                    27  3.867100417498868E-004
                    28  0.000000000000000E+000
                    29 -1.430111523246753E-002
                    30 -6.399774216983018E-004
                    31  3.538665731321241E-003
                    32  0.000000000000000E+000
                    33  2.642363642629040E-005
                    34  1.943863822773279E-004
                    35  0.000000000000000E+000
                    36 -4.153841424033225E-004
                    37 -1.202339497551728E-003
                    38 -2.164342724025539E-004
                    39  0.000000000000000E+000
                    40 -6.709322583671498E-006
                    41  7.758482906610647E-005
                    42  0.000000000000000E+000
                    43 -1.430111523246753E-002
                    44 -6.399774216983018E-004
                    45  3.538665731321241E-003
                    46  0.000000000000000E+000
                    47 -2.642363642629040E-005
                    48  1.943863822773279E-004
                    49  0.000000000000000E+000
                    50  4.153841424033225E-004
                    51 -1.202339497551728E-003
                    52 -2.164342724025539E-004
                    53  0.000000000000000E+000
                    54  6.709322583671498E-006
                    55  7.758482906610647E-005
                    56  0.000000000000000E+000
                    57  0.705701961558790     
                    58  6.601161864291389E-003
                    59 -9.556417984710816E-003
                    60  0.000000000000000E+000
                    61  1.939930284902005E-005
                    62  1.486568848130877E-004
                    63  0.000000000000000E+000
                    64  1.605067149559450E-003
                    65 -1.147154593718995E-003
                    66  1.133611160132814E-004
                    67  0.000000000000000E+000
                    68 -1.783922723052116E-004
                    69 -4.872855781066088E-004
                    70  0.000000000000000E+000
                    71  0.705701961558790     
                    72  6.601161864291389E-003
                    73 -9.556417984710816E-003
                    74  0.000000000000000E+000
                    75 -1.939930284902005E-005
                    76  1.486568848130877E-004
                    77  0.000000000000000E+000
                    78 -1.605067149559450E-003
                    79 -1.147154593718995E-003
                    80  1.133611160132814E-004
                    81  0.000000000000000E+000
                    82  1.783922723052116E-004
                    83 -4.872855781066088E-004
                    84  0.000000000000000E+000
                    85  5.060953035028654E-004
                    86  3.231792513558382E-004
                    87  0.000000000000000E+000
                    88  0.000000000000000E+000
                    89  2.483943831073444E-004
                    90 -7.661290016257930E-004
                    91  8.671283279319547E-004
                    92  0.000000000000000E+000
                    93  3.572185947219885E-004
                    94 -1.880816334615650E-004
                    95 -7.661290016257930E-004
                    96  8.671283279319547E-004
                    97  0.000000000000000E+000
                    98 -3.572185947219885E-004
                    99 -1.880816334615650E-004
 Sym= __5_A1_
 Ene=  0.000000000000000E+000
 Spin= Alpha
 Occup=    2.00000000000000     
                     1  1.551744530045297E-002
                     2 -0.670515585942470     
                     3  8.170812463626567E-002
                     4  0.000000000000000E+000
                     5  0.000000000000000E+000
                     6  0.167903142957983     
                     7  0.000000000000000E+000
                     8  0.000000000000000E+000
                     9 -3.551439552188067E-002
                    10 -4.261723536482389E-003
                    11  0.000000000000000E+000
                    12  0.000000000000000E+000
                    13  1.299125708581539E-002
                    14  0.000000000000000E+000
                    15  1.956126997768775E-003
                    16 -0.134885602627656     
                    17  9.088811335825012E-002
                    18  0.000000000000000E+000
                    19  0.000000000000000E+000
                    20 -4.727915408704680E-002
                    21  0.000000000000000E+000
                    22  0.000000000000000E+000
                    23  3.786350004632123E-002
                    24 -9.104646208649348E-004
                    25  0.000000000000000E+000
                    26  0.000000000000000E+000
                    27  3.354996082263994E-003
                    28  0.000000000000000E+000
                    29  1.093283949689894E-002
                    30 -0.367702394774688     
                    31  0.157297092004811     
                    32  0.000000000000000E+000
                    33  0.182178979568839     
                    34 -3.361368421865613E-002
                    35  0.000000000000000E+000
                    36 -8.361353312323906E-002
                    37  1.974496277174804E-002
                    38  3.061717750825041E-003
                    39  0.000000000000000E+000
                    40  1.550137704796661E-002
                    41  1.772579270723916E-002
                    42  0.000000000000000E+000
                    43  1.093283949689894E-002
                    44 -0.367702394774688     
                    45  0.157297092004811     
                    46  0.000000000000000E+000
                    47 -0.182178979568839     
                    48 -3.361368421865613E-002
                    49  0.000000000000000E+000
                    50  8.361353312323906E-002
                    51  1.974496277174804E-002
                    52  3.061717750825041E-003
                    53  0.000000000000000E+000
                    54 -1.550137704796661E-002
                    55  1.772579270723916E-002
                    56  0.000000000000000E+000
                    57  5.498692135427883E-003
                    58 -0.161999344824572     
                    59  3.185220476291543E-002
                    60  0.000000000000000E+000
                    61  4.426000401851439E-002
                    62 -5.270372290765114E-002
                    63  0.000000000000000E+000
                    64  6.283538728285534E-003
                    65  1.690402264697161E-002
                    66 -6.595021147734886E-003
                    67  0.000000000000000E+000
                    68  2.782507111445066E-003
                    69  2.119979688102322E-003
                    70  0.000000000000000E+000
                    71  5.498692135427883E-003
                    72 -0.161999344824572     
                    73  3.185220476291543E-002
                    74  0.000000000000000E+000
                    75 -4.426000401851439E-002
                    76 -5.270372290765114E-002
                    77  0.000000000000000E+000
                    78 -6.283538728285534E-003
                    79  1.690402264697161E-002
                    80 -6.595021147734886E-003
                    81  0.000000000000000E+000
                    82 -2.782507111445066E-003
                    83  2.119979688102322E-003
                    84  0.000000000000000E+000
                    85 -2.133282722819185E-002
                    86  1.585935559142995E-002
                    87  0.000000000000000E+000
                    88  0.000000000000000E+000
                    89 -2.613176179367887E-003
                    90 -2.718262359768113E-002
                    91  8.373301533705697E-003
                    92  0.000000000000000E+000
                    93  1.452990229258211E-003
                    94 -2.328387906802939E-003
                    95 -2.718262359768113E-002
                    96  8.373301533705697E-003
                    97  0.000000000000000E+000