[Molden Format]
[Atoms] AU
  N     1    7     0.0000000000    0.0000000000    2.7933925400        
  C     2    6     0.0000000000    0.0000000000   -2.4731799900        
  C     3    6     0.0000000000    2.0973280100    1.4862887900        
  C     4    6     0.0000000000   -2.0973280100    1.4862887900        
  C     5    6     0.0000000000    2.2863650700   -1.1378599100        
  C     6    6     0.0000000000   -2.2863650700   -1.1378599100        
  H     7    1     0.0000000000    0.0000000000   -4.5183020400        
  H     8    1     0.0000000000    4.0945778600   -2.0820921400        
  H     9    1     0.0000000000   -4.0945778600   -2.0820921400        
[5D7F]
[GTO]
  1  0
   s     9 1.00
  0.904600D+04  0.700000D-03
  0.135700D+04  0.538900D-02
  0.309300D+03  0.274060D-01
  0.877300D+02  0.103207D+00
  0.285600D+02  0.278723D+00
  0.102100D+02  0.448540D+00
  0.383800D+01  0.278238D+00
  0.746600D+00  0.154400D-01
  0.224800D+00 -0.286400D-02
   s     9 1.00
  0.904600D+04 -0.153000D-03
  0.135700D+04 -0.120800D-02
  0.309300D+03 -0.599200D-02
  0.877300D+02 -0.245440D-01
  0.285600D+02 -0.674590D-01
  0.102100D+02 -0.158078D+00
  0.383800D+01 -0.121831D+00
  0.746600D+00  0.549003D+00
  0.224800D+00  0.578815D+00
   s     1 1.00
  0.224800D+00  0.100000D+01
   p     4 1.00
  0.135500D+02  0.399190D-01
  0.291700D+01  0.217169D+00
  0.797300D+00  0.510319D+00
  0.218500D+00  0.462214D+00
   p     1 1.00
  0.218500D+00  0.100000D+01
   d     1 1.00
  0.817000D+00  0.100000D+01
  
  2  0
   s     9 1.00
  0.666500D+04  0.692000D-03
  0.100000D+04  0.532900D-02
  0.228000D+03  0.270770D-01
  0.647100D+02  0.101718D+00
  0.210600D+02  0.274740D+00
  0.749500D+01  0.448564D+00
  0.279700D+01  0.285074D+00
  0.521500D+00  0.152040D-01
  0.159600D+00 -0.319100D-02
   s     9 1.00
  0.666500D+04 -0.146000D-03
  0.100000D+04 -0.115400D-02
  0.228000D+03 -0.572500D-02
  0.647100D+02 -0.233120D-01
  0.210600D+02 -0.639550D-01
  0.749500D+01 -0.149981D+00
  0.279700D+01 -0.127262D+00
  0.521500D+00  0.544529D+00
  0.159600D+00  0.580496D+00
   s     1 1.00
  0.159600D+00  0.100000D+01
   p     4 1.00
  0.943900D+01  0.381090D-01
  0.200200D+01  0.209480D+00
  0.545600D+00  0.508557D+00
  0.151700D+00  0.468842D+00
   p     1 1.00
  0.151700D+00  0.100000D+01
   d     1 1.00
  0.550000D+00  0.100000D+01
  
  3  0
   s     9 1.00
  0.666500D+04  0.692000D-03
  0.100000D+04  0.532900D-02
  0.228000D+03  0.270770D-01
  0.647100D+02  0.101718D+00
  0.210600D+02  0.274740D+00
  0.749500D+01  0.448564D+00
  0.279700D+01  0.285074D+00
  0.521500D+00  0.152040D-01
  0.159600D+00 -0.319100D-02
   s     9 1.00
  0.666500D+04 -0.146000D-03
  0.100000D+04 -0.115400D-02
  0.228000D+03 -0.572500D-02
  0.647100D+02 -0.233120D-01
  0.210600D+02 -0.639550D-01
  0.749500D+01 -0.149981D+00
  0.279700D+01 -0.127262D+00
  0.521500D+00  0.544529D+00
  0.159600D+00  0.580496D+00
   s     1 1.00
  0.159600D+00  0.100000D+01
   p     4 1.00
  0.943900D+01  0.381090D-01
  0.200200D+01  0.209480D+00
  0.545600D+00  0.508557D+00
  0.151700D+00  0.468842D+00
   p     1 1.00
  0.151700D+00  0.100000D+01
   d     1 1.00
  0.550000D+00  0.100000D+01
  
  4  0
   s     9 1.00
  0.666500D+04  0.692000D-03
  0.100000D+04  0.532900D-02
  0.228000D+03  0.270770D-01
  0.647100D+02  0.101718D+00
  0.210600D+02  0.274740D+00
  0.749500D+01  0.448564D+00
  0.279700D+01  0.285074D+00
  0.521500D+00  0.152040D-01
  0.159600D+00 -0.319100D-02
   s     9 1.00
  0.666500D+04 -0.146000D-03
  0.100000D+04 -0.115400D-02
  0.228000D+03 -0.572500D-02
  0.647100D+02 -0.233120D-01
  0.210600D+02 -0.639550D-01
  0.749500D+01 -0.149981D+00
  0.279700D+01 -0.127262D+00
  0.521500D+00  0.544529D+00
  0.159600D+00  0.580496D+00
   s     1 1.00
  0.159600D+00  0.100000D+01
   p     4 1.00
  0.943900D+01  0.381090D-01
  0.200200D+01  0.209480D+00
  0.545600D+00  0.508557D+00
  0.151700D+00  0.468842D+00
   p     1 1.00
  0.151700D+00  0.100000D+01
   d     1 1.00
  0.550000D+00  0.100000D+01
  
  5  0
   s     9 1.00
  0.666500D+04  0.692000D-03
  0.100000D+04  0.532900D-02
  0.228000D+03  0.270770D-01
  0.647100D+02  0.101718D+00
  0.210600D+02  0.274740D+00
  0.749500D+01  0.448564D+00
  0.279700D+01  0.285074D+00
  0.521500D+00  0.152040D-01
  0.159600D+00 -0.319100D-02
   s     9 1.00
  0.666500D+04 -0.146000D-03
  0.100000D+04 -0.115400D-02
  0.228000D+03 -0.572500D-02
  0.647100D+02 -0.233120D-01
  0.210600D+02 -0.639550D-01
  0.749500D+01 -0.149981D+00
  0.279700D+01 -0.127262D+00
  0.521500D+00  0.544529D+00
  0.159600D+00  0.580496D+00
   s     1 1.00
  0.159600D+00  0.100000D+01
   p     4 1.00
  0.943900D+01  0.381090D-01
  0.200200D+01  0.209480D+00
  0.545600D+00  0.508557D+00
  0.151700D+00  0.468842D+00
   p     1 1.00
  0.151700D+00  0.100000D+01
   d     1 1.00
  0.550000D+00  0.100000D+01
  
  6  0
   s     9 1.00
  0.666500D+04  0.692000D-03
  0.100000D+04  0.532900D-02
  0.228000D+03  0.270770D-01
  0.647100D+02  0.101718D+00
  0.210600D+02  0.274740D+00
  0.749500D+01  0.448564D+00
  0.279700D+01  0.285074D+00
  0.521500D+00  0.152040D-01
  0.159600D+00 -0.319100D-02
   s     9 1.00
  0.666500D+04 -0.146000D-03
  0.100000D+04 -0.115400D-02
  0.228000D+03 -0.572500D-02
  0.647100D+02 -0.233120D-01
  0.210600D+02 -0.639550D-01
  0.749500D+01 -0.149981D+00
  0.279700D+01 -0.127262D+00
  0.521500D+00  0.544529D+00
  0.159600D+00  0.580496D+00
   s     1 1.00
  0.159600D+00  0.100000D+01
   p     4 1.00
  0.943900D+01  0.381090D-01
  0.200200D+01  0.209480D+00
  0.545600D+00  0.508557D+00
  0.151700D+00  0.468842D+00
   p     1 1.00
  0.151700D+00  0.100000D+01
   d     1 1.00
  0.550000D+00  0.100000D+01
  
  7  0
   s     4 1.00
  0.130100D+02  0.196850D-01
  0.196200D+01  0.137977D+00
  0.444600D+00  0.478148D+00
  0.122000D+00  0.501240D+00
   s     1 1.00
  0.122000D+00  0.100000D+01
   p     1 1.00
  0.727000D+00  0.100000D+01
  
  8  0
   s     4 1.00
  0.130100D+02  0.196850D-01
  0.196200D+01  0.137977D+00
  0.444600D+00  0.478148D+00
  0.122000D+00  0.501240D+00
   s     1 1.00
  0.122000D+00  0.100000D+01
   p     1 1.00
  0.727000D+00  0.100000D+01
  
  9  0
   s     4 1.00
  0.130100D+02  0.196850D-01
  0.196200D+01  0.137977D+00
  0.444600D+00  0.478148D+00
  0.122000D+00  0.501240D+00
   s     1 1.00
  0.122000D+00  0.100000D+01
   p     1 1.00
  0.727000D+00  0.100000D+01
  
[MO]
 Sym= __1_A1_
 Ene=  0.000000000000000E+000
 Spin= Alpha
 Occup=    2.00000000000000     
                     1   1.00140410242565     
                     2  6.785897252486457E-003
                     3 -1.076022624624669E-002
                     4  0.000000000000000E+000
                     5  0.000000000000000E+000
                     6 -2.924707345806916E-003
                     7  0.000000000000000E+000
                     8  0.000000000000000E+000
                     9  4.110922929397024E-003
                    10 -4.219582784883646E-006
                    11  0.000000000000000E+000
                    12  0.000000000000000E+000
                    13 -3.801868248093446E-004
                    14  0.000000000000000E+000
                    15 -1.784589265398586E-004
                    16 -6.383182645015074E-004
                    17  4.150583115874787E-003
                    18  0.000000000000000E+000
                    19  0.000000000000000E+000
                    20 -8.695322429367846E-005
                    21  0.000000000000000E+000
                    22  0.000000000000000E+000
                    23  1.711316820778457E-003
                    24  1.060168177098079E-004
                    25  0.000000000000000E+000
                    26  0.000000000000000E+000
                    27 -3.613417977389888E-005
                    28  0.000000000000000E+000
                    29  7.286125250000974E-005
                    30 -1.062731825625518E-004
                    31  3.918027685676282E-003
                    32  0.000000000000000E+000
                    33 -7.352492449847895E-005
                    34 -1.917928600174465E-004
                    35  0.000000000000000E+000
                    36 -2.027427475754497E-003
                    37  3.298516784752945E-005
                    38 -2.217843151746928E-005
                    39  0.000000000000000E+000
                    40  5.132660265976997E-004
                    41  2.454358042337692E-004
                    42  0.000000000000000E+000
                    43  7.286125250000974E-005
                    44 -1.062731825625518E-004
                    45  3.918027685676282E-003
                    46  0.000000000000000E+000
                    47  7.352492449847895E-005
                    48 -1.917928600174465E-004
                    49  0.000000000000000E+000
                    50  2.027427475754497E-003
                    51  3.298516784752945E-005
                    52 -2.217843151746928E-005
                    53  0.000000000000000E+000
                    54 -5.132660265976997E-004
                    55  2.454358042337692E-004
                    56  0.000000000000000E+000
                    57  7.574625831256662E-005
                    58  2.378029818232283E-004
                    59 -2.801187874654044E-003
                    60  0.000000000000000E+000
                    61  5.813537097458034E-005
                    62 -7.351104237999327E-005
                    63  0.000000000000000E+000
                    64  2.030898871152865E-003
                    65 -3.318373033760026E-004
                    66  3.864409315354042E-005
                    67  0.000000000000000E+000
                    68  1.604306705569745E-004
                    69 -8.883580836500187E-006
                    70  0.000000000000000E+000
                    71  7.574625831256662E-005
                    72  2.378029818232283E-004
                    73 -2.801187874654044E-003
                    74  0.000000000000000E+000
                    75 -5.813537097458034E-005
                    76 -7.351104237999327E-005
                    77  0.000000000000000E+000
                    78 -2.030898871152865E-003
                    79 -3.318373033760026E-004
                    80  3.864409315354042E-005
                    81  0.000000000000000E+000
                    82 -1.604306705569745E-004
                    83 -8.883580836500187E-006
                    84  0.000000000000000E+000
                    85 -1.161228796976325E-004
                    86  4.551518817805594E-004
                    87  0.000000000000000E+000
                    88  0.000000000000000E+000
                    89 -6.318818296481540E-005
                    90 -1.275644009114086E-004
                    91 -4.011519900285264E-004
                    92  0.000000000000000E+000
                    93 -9.278321155828152E-005
                    94 -1.750386146646502E-005
                    95 -1.275644009114086E-004
                    96 -4.011519900285264E-004
                    97  0.000000000000000E+000
                    98  9.278321155828152E-005
                    99 -1.750386146646502E-005
 Sym= __2_A1_
 Ene=  0.000000000000000E+000
 Spin= Alpha
 Occup=    2.00000000000000     
                     1 -2.117220491994764E-004
                     2  1.131233616874766E-003
                     3 -4.025524592902099E-003
                     4  0.000000000000000E+000
                     5  0.000000000000000E+000
                     6  2.475074417499188E-004
                     7  0.000000000000000E+000
                     8  0.000000000000000E+000
                     9  1.243168495554776E-003
                    10  1.153257964041089E-004
                    11  0.000000000000000E+000
                    12  0.000000000000000E+000
                    13  6.367246686114852E-004
                    14  0.000000000000000E+000
                    15  4.831862442235892E-004
                    16 -5.794442927370794E-004
                    17  3.148684059104652E-003
                    18  0.000000000000000E+000
                    19  0.000000000000000E+000
                    20 -3.519732428830789E-005
                    21  0.000000000000000E+000
                    22  0.000000000000000E+000
                    23  1.296993335212521E-003
                    24 -4.935782687017343E-005
                    25  0.000000000000000E+000
                    26  0.000000000000000E+000
                    27 -2.942090558991614E-004
                    28  0.000000000000000E+000
                    29  0.707714002461991     
                    30  4.563115528479446E-003
                    31 -3.069201129555896E-003
                    32  0.000000000000000E+000
                    33 -1.743773773586782E-003
                    34 -2.453987070509807E-004
                    35  0.000000000000000E+000
                    36 -2.205523659133606E-004
                    37  1.121890267785112E-003
                    38  1.924835645609176E-004
                    39  0.000000000000000E+000
                    40 -7.295010301312782E-004
                    41 -4.470928433353194E-004
                    42  0.000000000000000E+000
                    43  0.707714002461991     
                    44  4.563115528479446E-003
                    45 -3.069201129555896E-003
                    46  0.000000000000000E+000
                    47  1.743773773586782E-003
                    48 -2.453987070509807E-004
                    49  0.000000000000000E+000
                    50  2.205523659133606E-004
                    51  1.121890267785112E-003
                    52  1.924835645609176E-004
                    53  0.000000000000000E+000
                    54  7.295010301312782E-004
                    55 -4.470928433353194E-004
                    56  0.000000000000000E+000
                    57  1.394359471989301E-002
                    58 -2.748894160012018E-004
                    59  4.011431428324634E-005
                    60  0.000000000000000E+000
                    61  8.182221901302113E-005
                    62 -3.493889397934776E-005
                    63  0.000000000000000E+000
                    64  8.892159092610336E-004
                    65  9.746343438260660E-004
                    66 -1.879716352279446E-004
                    67  0.000000000000000E+000
                    68 -3.104799576561450E-004
                    69  1.202199413194850E-004
                    70  0.000000000000000E+000
                    71  1.394359471989301E-002
                    72 -2.748894160012018E-004
                    73  4.011431428324634E-005
                    74  0.000000000000000E+000
                    75 -8.182221901302113E-005
                    76 -3.493889397934776E-005
                    77  0.000000000000000E+000
                    78 -8.892159092610336E-004
                    79  9.746343438260660E-004
                    80 -1.879716352279446E-004
                    81  0.000000000000000E+000
                    82  3.104799576561450E-004
                    83  1.202199413194850E-004
                    84  0.000000000000000E+000
                    85  1.434220821093353E-004
                    86  3.971470385841853E-004
                    87  0.000000000000000E+000
                    88  0.000000000000000E+000
                    89  8.585717298079413E-006
                    90 -1.999419297927209E-004
                    91  2.970457946071860E-004
                    92  0.000000000000000E+000
                    93 -3.756287860871973E-005
                    94  5.382539718180574E-005
                    95 -1.999419297927209E-004
                    96  2.970457946071860E-004
                    97  0.000000000000000E+000
                    98  3.756287860871973E-005
                    99  5.382539718180574E-005
 Sym= __3_A1_
 Ene=  0.000000000000000E+000
 Spin= Alpha
 Occup=    2.00000000000000     
                     1 -2.185365348201032E-005
                     2 -1.027822986381837E-004
                     3  1.240166899504428E-004
                     4  0.000000000000000E+000
                     5  0.000000000000000E+000
                     6  3.664714995876875E-005
                     7  0.000000000000000E+000
                     8  0.000000000000000E+000
                     9  7.936994017726325E-005
                    10 -3.660906932190797E-006
                    11  0.000000000000000E+000
                    12  0.000000000000000E+000
                    13 -3.005154649824674E-006
                    14  0.000000000000000E+000
                    15  0.998130064497492     
                    16  8.900302659975318E-003
                    17 -1.136790030572256E-002
                    18  0.000000000000000E+000
                    19  0.000000000000000E+000
                    20 -2.905138015879233E-006
                    21  0.000000000000000E+000
                    22  0.000000000000000E+000
                    23 -1.709553311462903E-003
                    24  4.095947377296866E-004
                    25  0.000000000000000E+000
                    26  0.000000000000000E+000
                    27 -4.057023190313892E-004
                    28  0.000000000000000E+000
                    29 -1.715921586251563E-003
                    30 -3.263753061247368E-004
                    31  5.562605744765570E-004
                    32  0.000000000000000E+000
                    33 -4.868085407077363E-005
                    34 -1.060759622910146E-006
                    35  0.000000000000000E+000
                    36  9.762660031960137E-005
                    37 -2.749846157918009E-004
                    38  4.942936167011685E-005
                    39  0.000000000000000E+000
                    40  3.393973564864752E-005
                    41 -6.548955229792248E-005
                    42  0.000000000000000E+000
                    43 -1.715921586251563E-003
                    44 -3.263753061247368E-004
                    45  5.562605744765570E-004
                    46  0.000000000000000E+000
                    47  4.868085407077363E-005
                    48 -1.060759622910146E-006
                    49  0.000000000000000E+000
                    50 -9.762660031960137E-005
                    51 -2.749846157918009E-004
                    52  4.942936167011685E-005
                    53  0.000000000000000E+000
                    54 -3.393973564864752E-005
                    55 -6.548955229792248E-005
                    56  0.000000000000000E+000
                    57  5.796685834446168E-002
                    58 -1.264970029612096E-004
                    59  2.052316993762288E-003
                    60  0.000000000000000E+000
                    61  1.031963007243720E-004
                    62  5.277184252102010E-005
                    63  0.000000000000000E+000
                    64 -1.483022511900526E-003
                    65 -3.814681482843954E-004
                    66 -6.890242488180990E-005
                    67  0.000000000000000E+000
                    68 -8.356657474428808E-005
                    69  3.108498244903844E-004
                    70  0.000000000000000E+000
                    71  5.796685834446168E-002
                    72 -1.264970029612096E-004
                    73  2.052316993762288E-003
                    74  0.000000000000000E+000
                    75 -1.031963007243720E-004
                    76  5.277184252102010E-005
                    77  0.000000000000000E+000
                    78  1.483022511900526E-003
                    79 -3.814681482843954E-004
                    80 -6.890242488180990E-005
                    81  0.000000000000000E+000
                    82  8.356657474428808E-005
                    83  3.108498244903844E-004
                    84  0.000000000000000E+000
                    85 -8.214396435408326E-004
                    86  1.232458373343283E-003
                    87  0.000000000000000E+000
                    88  0.000000000000000E+000
                    89 -5.209095486282152E-004
                    90  1.831103833894953E-004
                    91  3.703720191916890E-004
                    92  0.000000000000000E+000
                    93 -7.954732614707789E-005
                    94  6.699892263143838E-005
                    95  1.831103833894953E-004
                    96  3.703720191916890E-004
                    97  0.000000000000000E+000
                    98  7.954732614707789E-005
                    99  6.699892263143838E-005
 Sym= __4_A1_
 Ene=  0.000000000000000E+000
 Spin= Alpha
 Occup=    2.00000000000000     
                     1  7.118514703036830E-005
                     2  1.874537022207507E-004
                     3 -1.145171020755186E-003
                     4  0.000000000000000E+000
                     5  0.000000000000000E+000
                     6 -2.026324559193111E-005
                     7  0.000000000000000E+000
                     8  0.000000000000000E+000
                     9  4.771297831848560E-004
                    10  4.610974280712740E-005
                    11  0.000000000000000E+000
                    12  0.000000000000000E+000
                    13 -5.328615014805848E-005
                    14  0.000000000000000E+000
                    15 -8.287605454165727E-002
                    16 -1.700653832472524E-003
                    17  5.739016076822644E-003
                    18  0.000000000000000E+000
                    19  0.000000000000000E+000
                    20 -5.818760725114193E-005
                    21  0.000000000000000E+000
                    22  0.000000000000000E+000
                    23  2.335013809660637E-003
                    24 -3.580512278092335E-004
                    25  0.000000000000000E+000
                    26  0.000000000000000E+000
                    27  3.865673448479596E-004
                    28  0.000000000000000E+000
                    29 -1.432165184465577E-002
                    30 -6.396177207397616E-004
                    31  3.538269031037520E-003
                    32  0.000000000000000E+000
                    33  2.640012037612721E-005
                    34  1.938257722593508E-004
                    35  0.000000000000000E+000
                    36 -4.152817274827701E-004
                    37 -1.202221675791363E-003
                    38 -2.160873287968953E-004
                    39  0.000000000000000E+000
                    40 -6.319661344303006E-006
                    41  7.773077512799815E-005
                    42  0.000000000000000E+000
                    43 -1.432165184465577E-002
                    44 -6.396177207397616E-004
                    45  3.538269031037520E-003
                    46  0.000000000000000E+000
                    47 -2.640012037612721E-005
                    48  1.938257722593508E-004
                    49  0.000000000000000E+000
                    50  4.152817274827701E-004
                    51 -1.202221675791363E-003
                    52 -2.160873287968953E-004
                    53  0.000000000000000E+000
                    54  6.319661344303006E-006
                    55  7.773077512799815E-005
                    56  0.000000000000000E+000
                    57  0.705725694979310     
                    58  6.601445001009155E-003
                    59 -9.554634392109379E-003
                    60  0.000000000000000E+000
                    61  1.951768397995101E-005
                    62  1.490923108579608E-004
                    63  0.000000000000000E+000
                    64  1.603530797465688E-003
                    65 -1.147250648364952E-003
                    66  1.121966771966653E-004
                    67  0.000000000000000E+000
                    68 -1.775472711915827E-004
                    69 -4.879688375147090E-004
                    70  0.000000000000000E+000
                    71  0.705725694979310     
                    72  6.601445001009155E-003
                    73 -9.554634392109379E-003
                    74  0.000000000000000E+000
                    75 -1.951768397995101E-005
                    76  1.490923108579608E-004
                    77  0.000000000000000E+000
                    78 -1.603530797465688E-003
                    79 -1.147250648364952E-003
                    80  1.121966771966653E-004
                    81  0.000000000000000E+000
                    82  1.775472711915827E-004
                    83 -4.879688375147090E-004
                    84  0.000000000000000E+000
                    85  5.059644957842717E-004
                    86  3.231378392943222E-004
                    87  0.000000000000000E+000
                    88  0.000000000000000E+000
                    89  2.484341120255899E-004
                    90 -7.661655847267592E-004
                    91  8.675857782610830E-004
                    92  0.000000000000000E+000
                    93  3.572997047689324E-004
                    94 -1.881168304439994E-004
                    95 -7.661655847267592E-004
                    96  8.675857782610830E-004
                    97  0.000000000000000E+000
                    98 -3.572997047689324E-004
                    99 -1.881168304439994E-004
 Sym= __5_A1_
 Ene=  0.000000000000000E+000
 Spin= Alpha
 Occup=    2.00000000000000     
                     1  1.551595121246439E-002
                     2 -0.670463282149748     
                     3  8.169554946997698E-002
                     4  0.000000000000000E+000
                     5  0.000000000000000E+000
                     6  0.167925427662555     
                     7  0.000000000000000E+000
                     8  0.000000000000000E+000
                     9 -3.552162973084447E-002
                    10 -4.268019996530576E-003
                    11  0.000000000000000E+000
                    12  0.000000000000000E+000
                    13  1.298673057872418E-002
                    14  0.000000000000000E+000
                    15  1.956375552969630E-003
                    16 -0.134917600114682     
                    17  9.091801792408126E-002
                    18  0.000000000000000E+000
                    19  0.000000000000000E+000
                    20 -4.729407144348286E-002
                    21  0.000000000000000E+000
                    22  0.000000000000000E+000
                    23  3.786490204454919E-002
                    24 -9.105217429291702E-004
                    25  0.000000000000000E+000
                    26  0.000000000000000E+000
                    27  3.357404729547940E-003
                    28  0.000000000000000E+000
                    29  1.093527870511538E-002
                    30 -0.367711323165656     
                    31  0.157268031408951     
                    32  0.000000000000000E+000
                    33  0.182159446149358     
                    34 -3.361456928563643E-002
                    35  0.000000000000000E+000
                    36 -8.360775403744734E-002
                    37  1.976240773969389E-002
                    38  3.054266246229407E-003
                    39  0.000000000000000E+000
                    40  1.550609158421114E-002
                    41  1.772353169527368E-002
                    42  0.000000000000000E+000
                    43  1.093527870511538E-002
                    44 -0.367711323165656     
                    45  0.157268031408951     
                    46  0.000000000000000E+000
                    47 -0.182159446149358     
                    48 -3.361456928563643E-002
                    49  0.000000000000000E+000
                    50  8.360775403744734E-002
                    51  1.976240773969389E-002
                    52  3.054266246229407E-003
                    53  0.000000000000000E+000
                    54 -1.550609158421114E-002
                    55  1.772353169527368E-002
                    56  0.000000000000000E+000
                    57  5.500062296911120E-003
                    58 -0.162038332582843     
                    59  3.189165470737946E-002
                    60  0.000000000000000E+000
                    61  4.427032248317014E-002
                    62 -5.271202722697181E-002
                    63  0.000000000000000E+000
                    64  6.289595057581392E-003
                    65  1.693257836801181E-002
                    66 -6.592751092034516E-003
                    67  0.000000000000000E+000
                    68  2.784275672528375E-003
                    69  2.119632611831592E-003
                    70  0.000000000000000E+000
                    71  5.500062296911120E-003
                    72 -0.162038332582843     
                    73  3.189165470737946E-002
                    74  0.000000000000000E+000
                    75 -4.427032248317014E-002
                    76 -5.271202722697181E-002
                    77  0.000000000000000E+000
                    78 -6.289595057581392E-003
                    79  1.693257836801181E-002
                    80 -6.592751092034516E-003
                    81  0.000000000000000E+000
                    82 -2.784275672528375E-003
                    83  2.119632611831592E-003
                    84  0.000000000000000E+000
                    85 -2.133618687472886E-002
                    86  1.585782613742357E-002
                    87  0.000000000000000E+000
                    88  0.000000000000000E+000
                    89 -2.613602760027849E-003
                    90 -2.720766024081166E-002
                    91  8.387004438676064E-003
                    92  0.000000000000000E+000
                    93  1.458807438832076E-003
                    94 -2.325607871930607E-003
                    95 -2.720766024081166E-002
                    96  8.387004438676064E-003
                    97  0.000000000000000E+000